LAMMPS data file via write_data, version 23 Jun 2022, timestep = 65000001

964 atoms
32 atom types
946 bonds
31 bond types
1746 angles
55 angle types
2334 dihedrals
55 dihedral types

-0.4716341157244475 90.4716341157246 xlo xhi
-0.4716341157244475 90.4716341157246 ylo yhi
-0.4716341157244475 100.4716341157246 zlo zhi

Masses

1 14.007
2 12.011
3 12.011
4 12.011
5 12.011
6 12.011
7 12.011
8 12.011
9 12.011
10 12.011
11 15.999
12 14.007
13 14.007
14 1.008
15 1.008
16 1.008
17 12.011
18 12.011
19 18.998
20 15.999
21 32.06
22 12.011
23 12.011
24 1.008
25 1.008
26 12.011
27 1.008
28 15.999
29 22.99
30 15.9994
31 1.008
32 1e-100

Pair Coeffs # lj/cut/coul/long/intel

1 0.17 3.25
2 0.066 3.5
3 0.07 3.55
4 0.066 3.5
5 0.07 3.55
6 0.105 3.75
7 0.066 3.5
8 0.066 3.5
9 0.066 3.5
10 0.066 3.5
11 0.21 2.96
12 0.17 3.3
13 0.17 3.25
14 0.03 2.5
15 0.03 2.42
16 0.03 2.5
17 0.105 3.75
18 0.062 3.25
19 0.22175 2.95
20 0.21 2.96
21 0.25 3.55
22 0.06597 3.5
23 0.066 3.5
24 0.03011 2.5
25 0.03 2.5
26 0.066 3.5
27 0.03 2.5
28 0.20005 3.15
29 0.0028 3.33
30 0.155 3.1536
31 0 1
32 0 1

Atoms # full

651 13 20 -0.75 21.279426900744397 2.102612753014267 18.34407567244008 0 0 0
1759 64 29 1 10.206702588126678 13.143792058516393 48.278136266146795 0 0 0
602 6 20 -0.75 0.23811203305122947 44.52325695205866 30.387674274478584 0 0 0
600 6 19 -0.2 2.6186963794126794 44.89280665362535 30.438862134844854 0 0 0
1758 63 29 1 9.87758544319283 26.33866234695293 86.18174675516481 0 0 0
603 6 20 -0.75 -0.28479836789267443 46.01956565901767 28.93487168489987 0 0 0
597 6 17 0.7 0.4850925964790875 45.58474978991626 29.812803769050426 0 0 0
598 6 18 0.4 1.9904217333803356 45.91837939634389 29.728053509763868 0 0 0
601 6 19 -0.2 2.438664786196267 45.995136014789885 28.46719667857377 0 0 0
623 9 20 -0.75 7.861087351032358 55.902575276822645 38.995726038519 0 0 0
624 9 20 -0.75 6.98075154785954 57.43969256568379 37.691016587967496 0 0 0
618 9 17 0.7 6.947420341624503 56.7281726989221 38.74305204119551 0 0 0
622 9 19 -0.2 5.421365173814602 57.82717621504896 40.081043061214395 0 0 0
621 9 19 -0.2 5.762294142052971 55.73832140883085 40.568295263475946 0 0 0
599 6 19 -0.2 2.233734540346518 47.144926910891705 30.309945332719654 0 0 0
619 9 18 0.4 5.663422785453602 56.641459189642745 39.56563865595914 0 0 0
620 9 19 -0.2 4.644415052938329 56.267869791873274 38.783631466090846 0 0 0
1769 74 29 1 4.796482723857422 73.62311941352756 29.871820509881218 0 0 0
646 13 17 0.7 22.33362378710136 2.30351186163168 18.95669327003498 0 0 0
650 13 19 -0.2 24.42550504546557 1.2597036284679946 18.393915882030296 0 0 0
647 13 18 0.4 23.679843048945198 2.3686883597962995 18.16472865136426 0 0 0
649 13 19 -0.2 24.432209691377892 3.4837263639864573 18.431972911038372 0 0 0
648 13 19 -0.2 23.356479732927667 2.332367501384563 16.858358389749284 0 0 0
652 13 20 -0.75 22.40589581611049 2.008931404028807 20.198456814394913 0 0 0
593 5 19 -0.2 44.753188835320046 4.47128672953803 67.51341785986865 0 0 0
1359 44 25 0.06 44.92853643199501 31.91607330645966 29.678752524202643 0 0 0
1362 44 27 0.06 42.522395194494685 31.455793217025203 29.232621351552865 0 0 0
318 1 15 0.115 42.9367308668923 43.7118025833282 41.757401684462394 0 0 0
11 1 2 0.225 43.51255028304385 37.43216147154858 38.44474541427579 0 0 0
2 1 2 0.225 40.28076085303274 41.38801652160255 44.0921935622809 0 0 0
262 1 14 0.06 38.893969944771904 40.65649952078809 41.24114415241788 0 0 0
314 1 14 0.06 39.0223318054711 43.3113724013063 38.04729428788482 0 0 0
9 1 2 0.225 41.648019669794614 40.28656979226168 42.352864247780936 0 0 0
546 1 7 -0.12 40.028733862697024 37.806878565972816 42.52370796655354 0 0 0
324 1 15 0.115 44.80271846011496 43.512727913892085 40.02668184979932 0 0 0
548 1 14 0.06 39.76625005448655 37.96932442125602 41.539728968377545 0 0 0
252 1 14 0.06 44.50746521245364 37.89573383372073 40.76391311324438 0 0 0
264 1 14 0.06 40.07362606734959 41.99211076654432 41.16490234664527 0 0 0
249 1 14 0.06 40.51519310731098 42.331272443058346 43.6148508406413 0 0 0
335 1 15 0.115 39.353341831353596 44.821760430545254 42.912803752398574 0 0 0
334 1 15 0.115 38.025496201247726 44.46037749173059 44.782617639212276 0 0 0
13 1 2 0.225 40.16743996587945 41.014550965409754 37.660513524269945 0 0 0
254 1 14 0.06 44.31892197548385 39.08852580278322 41.73880389651871 0 0 0
545 1 6 0.5 39.73573288996256 39.023364528436105 43.42552119481235 0 0 0
62 1 3 -0.115 42.04110114255151 44.015345300247155 41.23685912412112 0 0 0
58 1 3 -0.115 40.733742786093224 44.10248702123646 39.10896271672198 0 0 0
3 1 3 -0.115 41.602169771786315 39.742456552996494 40.93110930976318 0 0 0
549 1 14 0.06 41.002670269057944 37.56826612713278 42.68885379007613 0 0 0
568 1 11 -0.6 38.92985624580812 38.875127416627116 44.35312157866822 0 0 0
5 1 3 -0.115 42.485192190350126 38.419549566166204 39.035125788602684 0 0 0
7 1 3 -0.115 40.75647936830393 40.060562910731065 38.659025297030446 0 0 0
585 4 19 -0.2 44.91243556055828 37.760033887639565 44.25270799621427 0 0 0
10 1 4 -0.065 43.673855187125646 38.3969458132505 41.293646012953744 0 0 0
228 1 1 -0.36 40.7904516386034 42.26938356165192 37.43047858241335 0 0 0
248 1 14 0.06 39.223969691110476 41.40177625506195 44.35931590073514 0 0 0
63 1 3 -0.115 41.74348524307021 43.50578049228711 39.965179147309065 0 0 0
225 1 1 -0.36 44.865567555909486 37.943525348765014 38.23902519184394 0 0 0
8 1 3 -0.115 40.68293289787555 40.32341020221294 40.01000014812529 0 0 0
250 1 14 0.06 41.96478718276701 41.298738764038205 42.120934911817514 0 0 0
313 1 15 0.115 42.814770141967415 42.26058094529428 44.6383936307463 0 0 0
1 1 1 -0.36 40.441136931506804 40.19579690624717 43.236596327710245 0 0 0
263 1 14 0.06 38.939602053184956 41.664273924326174 39.77969523765881 0 0 0
4 1 3 -0.115 42.59083089597905 38.867800829050886 40.35467155201331 0 0 0
260 1 14 0.06 39.12141543598906 41.09039492414815 37.88482195394845 0 0 0
251 1 14 0.06 42.37143552763847 39.753999006665 42.95159354069601 0 0 0
325 1 15 0.115 43.997309551240356 41.820993820025265 38.28620491221831 0 0 0
70 1 3 -0.115 44.79271908322748 41.58546842306284 38.9296137985475 0 0 0
319 1 15 0.115 42.2377391391837 42.572031828669616 39.66253024130248 0 0 0
57 1 2 0.225 40.09255262782813 43.45571157455816 37.91403992478485 0 0 0
253 1 14 0.06 43.271599540584226 37.71325614217933 42.00705115274541 0 0 0
6 1 3 -0.115 41.53203334031932 39.03236735951071 38.15781322601474 0 0 0
347 1 15 0.115 44.97655306883146 41.81667556570846 43.20832220975321 0 0 0
14 1 4 -0.065 39.57590130931633 41.20393893834167 40.57852327831053 0 0 0
81 1 3 -0.115 39.83901476248978 44.96065277322421 43.84687246659204 0 0 0
80 1 3 -0.115 39.04231966523975 44.765727829633775 44.957055549703654 0 0 0
1360 44 27 0.06 42.58516545110775 32.46357868736409 30.74065898711722 0 0 0
513 1 16 0.13 32.6404888900434 44.7074907662146 43.57524036055289 0 0 0
588 4 20 -0.75 42.089993745590675 35.967970421253625 44.58744417351228 0 0 0
583 4 17 0.7 43.28885078187588 36.15482496426634 44.327098146602914 0 0 0
440 1 14 0.06 44.92509780669091 35.1967994550487 38.55160181870818 0 0 0
557 1 16 0.13 38.82395905501362 34.723338809572176 44.757327021738064 0 0 0
558 1 16 0.13 40.33340942863655 33.91070497070591 44.3151871345557 0 0 0
551 1 14 0.06 38.15224086411402 36.88155609101549 42.987297662798056 0 0 0
589 4 20 -0.75 44.04801627611947 35.26296949707417 43.86462206641824 0 0 0
552 1 14 0.06 39.66111595247372 36.51845411329392 44.023376110625335 0 0 0
547 1 8 0.01 39.233688358552115 36.645619438358736 43.02491748827842 0 0 0
550 1 9 -0.17 39.48617837647986 35.39262263459868 42.22411887581588 0 0 0
554 1 16 0.13 40.526661342766744 35.240421977729845 42.09353932293063 0 0 0
553 1 13 0.12 38.89182581978486 34.154514734630055 42.80239828780738 0 0 0
556 1 10 -0.17 39.25488200551284 33.909376377768154 44.1876695577834 0 0 0
565 1 16 0.13 40.36763303659431 32.69732918753831 42.0120319801912 0 0 0
564 1 10 -0.17 39.32462866690519 32.96815540789569 42.04836952041846 0 0 0
256 1 14 0.06 43.42078142128604 36.556488276774054 39.10301505178401 0 0 0
255 1 14 0.06 43.20212331248868 37.138908018802105 37.50033307164664 0 0 0
555 1 16 0.13 39.0257479332694 35.441954187752195 41.244807860519 0 0 0
1244 39 25 0.06 44.42158296817254 31.594033719685527 38.38596389604289 0 0 0
566 1 16 0.13 39.02930887855073 33.131039324599485 41.05676596237619 0 0 0
567 1 16 0.13 38.85793882776685 32.07838616756402 42.363749154740304 0 0 0
559 1 16 0.13 38.73092443724427 33.02920769051519 44.67235994408411 0 0 0
1243 39 25 0.06 43.013423672080165 30.654782357866985 37.91193069378485 0 0 0
1239 39 23 -0.12 44.07684380616614 30.845512726311984 37.7473138233242 0 0 0
560 1 10 -0.17 37.49727289861837 34.231542770889156 42.69179261142147 0 0 0
562 1 16 0.13 37.13091216611323 34.52449170527707 41.6840956945806 0 0 0
563 1 16 0.13 36.98661364813273 35.044404178174084 43.20030478356718 0 0 0
561 1 16 0.13 37.03009914001352 33.27840896964243 43.036879388378495 0 0 0
1242 39 26 -0.18 44.877337858678274 29.514346206194197 37.85186211377245 0 0 0
1247 39 27 0.06 44.83203146065689 28.928539839246085 38.80449394612057 0 0 0
535 1 16 0.13 42.07264203304649 42.28980013875442 33.644295589883605 0 0 0
320 1 14 0.06 44.12938975370793 39.723978938729296 37.348690765831094 0 0 0
315 1 14 0.06 40.037055932598214 44.19460097834152 37.13664536115988 0 0 0
1250 39 28 -0.68 43.58813964596232 37.557162610714045 34.06522897139774 0 0 0
530 1 14 0.06 42.92072337913768 44.13071990016014 36.94356314337164 0 0 0
206 1 8 0.01 43.27678789992143 43.60164806579134 34.884079316967465 0 0 0
532 1 14 0.06 44.115701163507396 42.94537937216445 34.92385547929823 0 0 0
205 1 7 -0.12 42.343528673242155 43.692279787134986 36.06865329742329 0 0 0
204 1 6 0.5 41.77775050844669 42.347735174139366 36.47584771024425 0 0 0
531 1 14 0.06 41.64849756402206 44.403660899604695 35.61496463623612 0 0 0
221 1 11 -0.6 42.28156895429006 41.323055069750005 35.98768728549483 0 0 0
12 1 4 -0.065 41.23734145786157 38.43617845160548 36.83823487837191 0 0 0
259 1 14 0.06 41.88072692316425 38.64073331952035 36.0178048332943 0 0 0
261 1 14 0.06 40.13049164383684 40.561215079386756 36.701864167037265 0 0 0
533 1 14 0.06 43.78035368720652 44.55805008782821 34.74022180994051 0 0 0
257 1 14 0.06 40.2306298391812 38.655759706608556 36.57230441887203 0 0 0
543 1 16 0.13 44.632282853704616 44.93927128532646 32.57495502604427 0 0 0
208 1 10 -0.17 42.08934734817788 43.18176336313948 31.238740305220702 0 0 0
210 1 10 -0.17 43.634609065934 44.778654802256376 32.12401150920537 0 0 0
247 1 13 0.12 43.094331057505045 43.42717592765957 32.2655698682984 0 0 0
541 1 16 0.13 43.75965254784362 41.51594891703536 32.49544647826255 0 0 0
209 1 10 -0.17 44.20084422755708 42.423680538710926 32.275155219493875 0 0 0
536 1 16 0.13 41.80072746868392 42.13089736440748 31.11705560505397 0 0 0
538 1 16 0.13 41.14363918114574 43.71449676311367 31.364227384485925 0 0 0
537 1 16 0.13 42.56315000236316 43.42462478899817 30.308972503633672 0 0 0
540 1 16 0.13 44.494682298848474 42.321049646099645 31.185180063055636 0 0 0
207 1 9 -0.17 42.44829101236113 43.316314989608394 33.58228943788907 0 0 0
534 1 16 0.13 41.599012780106754 43.968097334969585 33.424190661055825 0 0 0
258 1 14 0.06 41.31561371179738 37.4036870346637 37.04902756552195 0 0 0
1234 39 25 0.06 44.76018064033359 33.48585281253923 34.69653890933846 0 0 0
1228 39 21 1.18 44.16057953758304 36.215577623966816 33.86695804781315 0 0 0
1235 39 25 0.06 43.149619812407025 33.34247834823193 34.29179907598104 0 0 0
1232 39 24 0 44.566825738866065 35.669851730071755 36.05659476459373 0 0 0
1229 39 22 -0.14 43.795321097907056 35.353809376337495 35.32482842933577 0 0 0
1230 39 23 -0.12 43.794258398340915 33.80648546636296 35.11129115111124 0 0 0
1231 39 24 0 42.80915998163703 35.67407852710943 35.72524355669207 0 0 0
1238 39 25 0.06 44.23159399643237 33.41156446339424 37.11747669841988 0 0 0
1233 39 23 -0.12 43.566125403968265 32.94671055342218 36.43931763584026 0 0 0
1236 39 23 -0.12 43.918565184032815 31.41716144066318 36.31308601250282 0 0 0
1241 39 25 0.06 43.23333659228299 30.88538810300306 35.609328950076 0 0 0
1237 39 25 0.06 42.56720859097719 33.189845294123586 36.80956134813888 0 0 0
1240 39 25 0.06 44.82357278283254 31.39241871613416 35.72423745905136 0 0 0
1246 39 27 0.06 44.50557566187669 28.82406653477106 37.10890914769679 0 0 0
1358 44 25 0.06 44.745367977727575 30.27208539477639 30.101787670894144 0 0 0
1248 39 28 -0.68 43.49977005937247 35.438785474543295 32.807556742268055 0 0 0
1357 44 26 -0.18 42.93650192510987 31.566817774248484 30.25615761847004 0 0 0
1361 44 27 0.06 42.48845704342297 30.67819324407421 30.789281588421368 0 0 0
1354 44 23 -0.12 44.42958700190196 31.29689407431708 30.442228833228043 0 0 0
1356 44 25 0.06 44.32524665869615 31.043712773808018 32.5350328540605 0 0 0
830 21 25 0.06 43.73500531970145 40.55063950246052 56.45891800348093 0 0 0
391 1 16 0.13 41.66463918134279 44.86462504950879 59.14779885993521 0 0 0
138 1 10 -0.17 44.13026056007449 44.84462717211907 58.625914466652304 0 0 0
388 1 16 0.13 43.82351789154939 43.85117558416612 58.52873572469794 0 0 0
384 1 16 0.13 42.2347727880715 44.4293512023301 56.673774787481406 0 0 0
1066 31 28 -0.68 38.910286518215074 44.98502576447176 56.75082368468827 0 0 0
829 21 25 0.06 43.22318701882155 42.14773164749825 55.89553855632993 0 0 0
833 21 27 0.06 43.8704481693968 39.75926707460948 54.31201460706512 0 0 0
828 21 26 -0.18 43.47063596956834 40.72019707382017 54.31152282632484 0 0 0
832 21 27 0.06 42.40909932701664 40.6172538800365 54.29010741630173 0 0 0
831 21 27 0.06 43.9856622855824 41.39889364359148 53.57720232221816 0 0 0
657 14 24 0 44.60597633905435 44.91320832161955 52.67939139258883 0 0 0
825 21 23 -0.12 43.91635543933014 41.34515555947482 55.660470221436675 0 0 0
385 1 16 0.13 43.85506125288719 44.92745781130738 56.25256852593733 0 0 0
340 1 15 0.115 40.650154233998634 42.65051448042058 52.938979260857764 0 0 0
338 1 14 0.06 39.865267148036395 44.80807154547405 53.392601028583016 0 0 0
1050 31 25 0.06 37.4985786637495 44.269328556311144 54.61168759602634 0 0 0
1054 31 25 0.06 35.15401084603499 43.8651308914624 54.34487149541117 0 0 0
1049 31 23 -0.12 35.52089126353766 44.758317967502784 53.87134499933174 0 0 0
586 4 19 -0.2 43.130026149243 38.273414189707005 45.40590544434086 0 0 0
91 1 3 -0.115 41.166670803720436 44.758668889511476 50.23614855563173 0 0 0
109 1 3 -0.115 44.88578355922164 41.27103511801487 50.61132669809469 0 0 0
359 1 15 0.115 44.59499203826667 42.22059118888923 51.14681496409403 0 0 0
229 1 12 -0.63 42.91744846013232 41.65414759718046 49.125731449250296 0 0 0
89 1 5 0.21 42.27555752795539 42.50904776164035 49.92191923340159 0 0 0
341 1 15 0.115 41.905063573040316 41.113089078492386 51.575961764520905 0 0 0
342 1 15 0.115 42.40032200786359 44.153859507920764 48.51275507642419 0 0 0
90 1 3 -0.115 41.93963476599302 43.84782264871397 49.489720093176324 0 0 0
88 1 3 -0.115 41.78402754060949 42.10252723918937 51.210044605090324 0 0 0
87 1 3 -0.115 40.97969548208191 42.987742495167865 51.96003434931229 0 0 0
110 1 5 0.21 44.02590031446797 40.897662937678625 49.52776822124671 0 0 0
111 1 3 -0.115 44.43424086084012 39.71087216596603 48.84944302498363 0 0 0
360 1 15 0.115 43.87473725508625 39.48976651236357 47.92017574030738 0 0 0
54 1 5 0.21 42.34325098165391 41.49492658707412 47.899909014630175 0 0 0
55 1 3 -0.115 42.95077558392363 41.921905619047706 46.70860972781489 0 0 0
312 1 15 0.115 43.99344418914309 42.240607564190775 46.77509739202644 0 0 0
311 1 15 0.115 40.47250247256678 40.76091634585031 48.80134834757287 0 0 0
332 1 14 0.06 38.42775958909731 43.68048040821443 47.55094937771649 0 0 0
53 1 3 -0.115 40.973231804716 41.06844260986663 47.88452724181932 0 0 0
52 1 3 -0.115 40.292679978302054 40.986255171166796 46.64248130736835 0 0 0
310 1 15 0.115 39.289932032021206 40.62336496997123 46.60293937981621 0 0 0
51 1 3 -0.115 40.9896607430514 41.36477230127883 45.44379991800802 0 0 0
56 1 3 -0.115 42.24989840639649 41.93080306414275 45.50694575194673 0 0 0
86 1 3 -0.115 40.69439693081646 44.27989390870355 51.49123372963797 0 0 0
78 1 2 0.225 38.636630892739845 44.7256374963692 47.48531538315084 0 0 0
672 14 27 0.06 44.76968427509657 44.48268777065419 46.07308173178248 0 0 0
1063 31 27 0.06 34.755057019989756 44.94446469164063 50.02008089092402 0 0 0
1052 31 23 -0.12 35.57856215599155 44.615390730719774 52.3460691325732 0 0 0
502 1 14 0.06 34.08768915475346 44.51071902160818 45.23992129371888 0 0 0
510 1 16 0.13 29.939630934341956 44.59361337470941 45.42005665867536 0 0 0
1056 31 25 0.06 36.52531763688016 44.124715535050875 51.998694334890864 0 0 0
1059 31 25 0.06 33.51367096547305 44.29906771987273 52.09765269647315 0 0 0
1060 31 25 0.06 34.48370735885788 42.817473451592925 52.03257907692485 0 0 0
1058 31 26 -0.18 34.52254357752963 43.946804182803284 50.2087322063887 0 0 0
1062 31 27 0.06 35.43335289846023 43.543161535274166 49.8142389411923 0 0 0
503 1 14 0.06 33.791164703101366 44.792227656544675 46.97798086382677 0 0 0
1055 31 23 -0.12 34.44057331028452 43.880480747774264 51.74838009703727 0 0 0
195 1 10 -0.17 30.92571769541752 44.721637720098585 45.75432449943912 0 0 0
509 1 16 0.13 31.44702855524735 43.80248775977342 45.80221407009965 0 0 0
219 1 11 -0.6 36.114401778736664 43.88108252625319 46.812564157219384 0 0 0
1061 31 27 0.06 33.56952416621934 43.528371653818084 49.70691204115563 0 0 0
584 4 18 0.4 43.97110749954634 37.2940063746786 45.11259435744685 0 0 0
587 4 19 -0.2 44.540623285530415 36.87346892134314 46.2779200155296 0 0 0
614 8 19 -0.2 30.941516476404125 25.75658735199281 80.74941067420534 0 0 0
611 8 17 0.7 30.263583613013523 26.779660646099085 78.82317337486988 0 0 0
617 8 20 -0.75 30.85473038834466 27.873266729856947 78.84180575849773 0 0 0
616 8 20 -0.75 30.335871407718482 25.99338771815653 77.82806090901339 0 0 0
615 8 19 -0.2 29.388391525502872 27.212921664515285 80.96982887345095 0 0 0
613 8 19 -0.2 28.787495871515357 25.3276728407063 80.00474816191193 0 0 0
612 8 18 0.4 29.77551137792416 26.25533904079575 80.15696130080475 0 0 0
467 1 16 0.13 39.90856135087167 54.949151120896005 39.431549764524746 0 0 0
172 1 9 -0.17 41.87572312619084 53.27550477855319 38.9721223116613 0 0 0
1570 53 28 -0.68 39.923970242809645 53.571524812271015 42.00459374528982 0 0 0
881 23 28 -0.68 42.883545635180404 57.33319199522788 42.23835288912698 0 0 0
861 23 22 -0.14 44.54131839263081 55.49953033956899 43.26825539925854 0 0 0
458 1 14 0.06 42.929219891578725 54.497527438762276 40.46573420148493 0 0 0
457 1 14 0.06 43.8661845140461 53.92264235364633 39.15735353373244 0 0 0
171 1 8 0.01 43.09394461531865 53.66709475657153 39.8171828005009 0 0 0
466 1 16 0.13 43.209833611120025 55.499577675416205 37.655615752865025 0 0 0
880 23 28 -0.68 43.19669888805453 57.296274587000546 44.64661877582866 0 0 0
459 1 16 0.13 41.19845933139365 52.92643514363878 39.79604319594085 0 0 0
1571 53 28 -0.68 37.577888246095334 53.210564766335104 42.42409986589495 0 0 0
864 23 24 0 43.611394928288036 54.91875880687996 43.004482968761245 0 0 0
1572 53 28 -0.68 38.55280380775632 53.05334830016389 40.1594411070526 0 0 0
469 1 16 0.13 41.30702581828616 55.93575575774369 39.60570504691411 0 0 0
461 1 16 0.13 39.78605414050433 53.112429462078296 38.070327515120596 0 0 0
175 1 10 -0.17 40.751194337022746 55.466295417788004 38.847595708121716 0 0 0
860 23 21 1.18 43.8200514606784 57.17396795079859 43.29381292569995 0 0 0
242 1 13 0.12 41.42624749792826 54.403304965391094 38.13378610746978 0 0 0
1550 53 21 1.18 38.74935749146125 52.844557613254125 41.602811733681136 0 0 0
468 1 16 0.13 40.33739151793534 56.267720754376114 38.14390493026191 0 0 0
169 1 6 0.5 44.961999948989316 52.63881677555559 41.38699270458373 0 0 0
882 23 28 -0.68 44.94585549832285 58.074663319737795 43.147070432635715 0 0 0
1656 57 26 -0.18 44.98083178665401 46.56334835421878 38.711174283519355 0 0 0
455 1 14 0.06 42.69269641700258 52.27560801752187 41.527331870144614 0 0 0
170 1 7 -0.12 43.53100047973904 52.48129296969158 40.75266419210187 0 0 0
376 1 15 0.115 41.61603054938521 50.29268957804208 43.34200708531378 0 0 0
129 1 3 -0.115 42.275242708159595 49.49773131855194 43.08465566185134 0 0 0
128 1 3 -0.115 43.62504893355118 49.652852692630745 42.67234822754343 0 0 0
375 1 14 0.06 43.72281954921226 51.6123997490194 43.33323083825072 0 0 0
127 1 2 0.225 44.46455391146861 50.8965706003962 42.993854444769724 0 0 0
1553 53 24 0 39.63941811565974 51.065333400173905 42.754438037378485 0 0 0
1551 53 22 -0.14 39.10323379259225 51.124754382783394 41.79783365321925 0 0 0
1555 53 23 -0.12 38.06726510181342 48.79507841877046 41.98012690314315 0 0 0
1559 53 25 0.06 38.48189835570268 48.52788546617227 42.949714063223325 0 0 0
133 1 3 -0.115 44.32637368900954 48.49361168876172 42.37793557938044 0 0 0
130 1 3 -0.115 41.6429526374406 48.22968525052876 43.17105602441601 0 0 0
132 1 3 -0.115 43.67360111491758 47.233613882421636 42.38729167404144 0 0 0
131 1 5 0.21 42.363742232765546 47.06720856169356 42.80781860483224 0 0 0
378 1 15 0.115 44.160381023670624 46.29524768301367 42.171770678352026 0 0 0
235 1 12 -0.63 41.84673876415173 45.78995104348732 42.854071004766546 0 0 0
82 1 5 0.21 41.10362558177012 45.4785825443896 43.98201254498979 0 0 0
377 1 15 0.115 40.54579350354996 48.17775133557149 43.34250289580396 0 0 0
456 1 14 0.06 43.60148458201673 51.49867954903138 40.28157329783246 0 0 0
460 1 16 0.13 41.99738972938403 52.445122652789145 38.30306594255669 0 0 0
1554 53 24 0 39.75720249236799 50.793969242136754 40.987905126670185 0 0 0
1645 57 24 0 38.82857377237814 50.12066343527695 38.876961579534296 0 0 0
1643 57 22 -0.14 39.686012279441925 50.02340334810869 38.321836098057574 0 0 0
1649 57 25 0.06 40.618197612087265 48.86445345655314 39.83298023215019 0 0 0
1644 57 23 -0.12 40.44354228490313 48.725098700785566 38.790301227159496 0 0 0
1647 57 23 -0.12 41.7685414762261 48.62896635490355 38.04764380653425 0 0 0
1653 57 23 -0.12 44.12097681799047 47.73907186960209 38.25429009299936 0 0 0
1655 57 25 0.06 42.5300652108661 47.413350143607246 39.595075135598634 0 0 0
1650 57 23 -0.12 42.64364697924246 47.5482376304385 38.53499913395085 0 0 0
317 1 15 0.115 40.31999009787214 46.89853854326753 41.09720923054197 0 0 0
1560 53 25 0.06 38.750501477075574 48.483720176836755 41.20996724738572 0 0 0
60 1 3 -0.115 40.62148347188731 45.90238178188655 40.8134476031397 0 0 0
316 1 15 0.115 39.45735209912406 45.800639259877244 39.01030063304797 0 0 0
1648 57 25 0.06 39.817472335951436 47.87870106565218 38.71835360752772 0 0 0
1646 57 24 0 40.2509210644208 50.95654732348458 38.324836253842726 0 0 0
1651 57 25 0.06 42.267561759816715 49.5807716962118 38.16340606141789 0 0 0
61 1 5 0.21 41.531990401096856 45.25090647753253 41.64534859017726 0 0 0
1654 57 25 0.06 42.25545117103399 46.59195348698315 38.190239091218 0 0 0
1552 53 23 -0.12 37.89458388117905 50.28471551415162 41.79588574919791 0 0 0
59 1 3 -0.115 40.235770312466876 45.30703978028468 39.605736159461145 0 0 0
1659 57 27 0.06 44.69360828838475 45.61322844410924 38.23385644310771 0 0 0
1657 57 25 0.06 44.41689682584805 48.664337299502066 38.66641767235324 0 0 0
1566 53 25 0.06 37.52328768651784 45.985806839434254 42.08018734702055 0 0 0
1660 57 27 0.06 44.731818534763995 46.47604866293696 39.76268406177809 0 0 0
512 1 16 0.13 30.89037389040941 45.005425171705355 43.104868068638574 0 0 0
1556 53 25 0.06 37.27940643326438 50.54706803571812 40.972823005419635 0 0 0
1565 53 25 0.06 36.81339765482722 46.86593481916925 43.60885955434781 0 0 0
245 1 13 0.12 31.494406773526954 45.75289705980258 44.97563921193472 0 0 0
507 1 16 0.13 30.998821187070565 47.852401664707536 44.77695283894145 0 0 0
196 1 10 -0.17 31.796689439414475 45.40623798842718 43.62921468477285 0 0 0
1017 29 27 0.06 33.84444574299754 50.563831657700575 44.866767380483516 0 0 0
1012 29 26 -0.18 34.87952160133217 50.18734007103557 44.58746214920767 0 0 0
1015 29 27 0.06 34.85405454603797 49.0998752631751 44.680558482346 0 0 0
1557 53 25 0.06 37.37625781970167 50.73936864061688 42.61826116947978 0 0 0
1016 29 27 0.06 35.041197793406255 50.33597544243324 43.578041395066755 0 0 0
1564 53 26 -0.18 35.39750578491047 45.96192345729818 42.235478892618715 0 0 0
1561 53 23 -0.12 36.73703262236011 46.70983781289055 42.525843171351376 0 0 0
1569 53 27 0.06 34.51273179213146 46.56127658517694 42.44631176409581 0 0 0
514 1 16 0.13 32.124735499191196 46.32876228364093 43.09709183466838 0 0 0
1563 53 25 0.06 35.923684145379006 48.55948191836906 42.314012424731146 0 0 0
1562 53 25 0.06 36.49560020669901 47.930720718990784 40.77103947679835 0 0 0
1558 53 23 -0.12 36.780161742488154 48.087146779498525 41.78940125250457 0 0 0
1568 53 27 0.06 35.315359934020286 45.75663267037028 41.15826536632541 0 0 0
506 1 16 0.13 29.666236232249638 46.777702597724236 44.41678573171195 0 0 0
173 1 10 -0.17 40.40854667173647 53.67539924633748 37.36732554269266 0 0 0
174 1 10 -0.17 42.40807486551271 54.93343961288677 37.238085227586254 0 0 0
465 1 16 0.13 42.85095180791419 54.144125922162054 36.67780942718013 0 0 0
464 1 16 0.13 41.89995364494929 55.52497001995602 36.43420657547807 0 0 0
463 1 16 0.13 39.772726863023436 54.422912692908966 36.86306790971088 0 0 0
462 1 16 0.13 40.793780209224764 52.97149982040831 36.640781321554755 0 0 0
1652 57 25 0.06 41.63474919979239 48.45215257969335 36.99654167127553 0 0 0
1658 57 25 0.06 44.30910256073785 47.71473474027346 37.18254156354454 0 0 0
1662 57 28 -0.68 37.71730239452839 50.66339295327338 36.74724718946634 0 0 0
1664 57 28 -0.68 39.89700017013012 50.034579240662524 35.85444621505714 0 0 0
1642 57 21 1.18 38.83721962356931 49.748016052047866 36.77989399394389 0 0 0
1663 57 28 -0.68 38.46922409105001 48.338114034437204 36.7068894074319 0 0 0
544 1 16 0.13 43.00266452902057 45.55551642184921 32.574854568139855 0 0 0
542 1 16 0.13 43.859234584474976 45.066893885939294 31.08337562961583 0 0 0
1567 53 27 0.06 35.31726312643618 45.022650773752424 42.83096653852679 0 0 0
496 1 16 0.13 39.89286939876171 56.060763571222125 53.54336088873724 0 0 0
494 1 16 0.13 40.451591284280155 54.45563734355037 53.81408198508973 0 0 0
188 1 10 -0.17 39.897412776800756 55.05388651716985 53.105920768068245 0 0 0
495 1 16 0.13 38.839833007478724 54.84511952654651 53.12993116049992 0 0 0
392 1 16 0.13 44.84812626489905 46.94202848438139 57.34338022962644 0 0 0
386 1 16 0.13 44.20958904850536 45.00953596184589 59.704568389930955 0 0 0
137 1 9 -0.17 42.96426476629572 45.27182578664567 56.69632634487692 0 0 0
394 1 16 0.13 43.25493168688528 47.803914463890266 57.61881473417224 0 0 0
390 1 16 0.13 42.23955026785368 46.31075808659918 59.80458765491109 0 0 0
237 1 13 0.12 43.21940426806595 45.775874269566366 58.0584906710301 0 0 0
140 1 10 -0.17 43.96780260805266 47.038418471952774 57.98241033484732 0 0 0
139 1 10 -0.17 42.02509663157866 45.809495460469904 58.88562248201471 0 0 0
389 1 16 0.13 41.20192533733497 46.338089978518 58.48719839657323 0 0 0
1044 31 21 1.18 38.160453323522404 46.24638723554793 56.7167786270013 0 0 0
1064 31 28 -0.68 37.92812176786622 46.773394569248296 58.06509105223035 0 0 0
393 1 16 0.13 44.40957260289717 47.18036770383936 58.98249812287475 0 0 0
1065 31 28 -0.68 38.729860850445725 47.29979315925916 55.89676882831059 0 0 0
380 1 14 0.06 40.65334782559736 45.38210075054573 55.08639498059911 0 0 0
381 1 14 0.06 42.20183385743609 45.127673233803904 54.053381795286235 0 0 0
383 1 14 0.06 41.60764780666556 47.00473813336105 56.36760056148979 0 0 0
136 1 8 0.01 42.37005058765897 46.415107122314616 55.79623280460357 0 0 0
382 1 14 0.06 43.22686821116336 47.078434707194965 55.442537374031104 0 0 0
211 1 11 -0.6 41.531693462650615 48.025906551484574 53.7842119434516 0 0 0
135 1 7 -0.12 41.54093438559212 45.870328214234824 54.6513907133474 0 0 0
134 1 6 0.5 41.120434020953326 46.94781394870272 53.61729652503848 0 0 0
656 14 24 0 43.696234168613366 46.31241898260463 52.970072610561104 0 0 0
1018 29 28 -0.68 37.693457050128146 51.8411214726619 52.64701413320622 0 0 0
270 1 14 0.06 39.486674104362876 48.48615364308499 52.70105455979176 0 0 0
230 1 1 -0.36 40.3424488822518 46.58876357190276 52.57744651152766 0 0 0
1048 31 24 0 36.04298813952597 45.213709668714785 56.532642075600634 0 0 0
1047 31 24 0 36.00234698754804 46.74480858068364 55.740758353050346 0 0 0
1045 31 22 -0.14 36.6197940438544 45.83127454843452 55.87558504259683 0 0 0
1051 31 25 0.06 37.35712772875644 45.919126591245714 53.93267956244111 0 0 0
1046 31 23 -0.12 36.86286067611587 45.1576466022279 54.532666867010576 0 0 0
1053 31 25 0.06 34.7552005319907 45.504342784948705 54.19570607149155 0 0 0
867 23 25 0.06 44.419128557928886 55.050312771087306 45.28177656089313 0 0 0
493 1 16 0.13 41.761917072019024 56.700543933896384 51.91336439424636 0 0 0
492 1 16 0.13 42.32746021101387 55.17254208939276 52.22352343653607 0 0 0
491 1 16 0.13 42.01156276970909 55.84807046468399 50.56313555791029 0 0 0
187 1 10 -0.17 41.64516437391657 55.677873408436064 51.61924229478659 0 0 0
498 1 16 0.13 39.66206427675873 55.81132510204293 50.02521787589955 0 0 0
499 1 16 0.13 39.213052124290904 56.82912785646045 51.32480837670233 0 0 0
189 1 10 -0.17 39.300886695843545 55.7772086994334 51.0582039932546 0 0 0
497 1 16 0.13 38.33798529583712 55.314729916792935 51.082655929980795 0 0 0
488 1 14 0.06 42.34212952506557 53.7516688358785 49.90547425008247 0 0 0
185 1 8 0.01 41.30257680736808 53.44891798196656 49.82415289520892 0 0 0
244 1 13 0.12 40.355362577687856 55.05229899650865 51.716512787077654 0 0 0
186 1 9 -0.17 40.48669927525228 53.646782418622315 51.21701457559933 0 0 0
487 1 14 0.06 40.81086293710716 54.114351939764724 49.06041504014787 0 0 0
489 1 16 0.13 41.0794743419489 53.10007668716538 52.06579407616858 0 0 0
218 1 11 -0.6 42.72069192253874 52.76960414681415 47.7290354944328 0 0 0
490 1 16 0.13 39.53669005377872 53.13990183160142 51.23275184486486 0 0 0
79 1 3 -0.115 39.52982554393072 45.031614097379126 46.29335049906944 0 0 0