LAMMPS data file via write_data, version 23 Jun 2022, timestep = 60000001

1641 atoms
33 atom types
1603 bonds
32 bond types
3017 angles
56 angle types
4047 dihedrals
56 dihedral types

-0.6497480139327136 130.6497480139962 xlo xhi
-0.6497480139327136 90.6497480139962 ylo yhi
-0.6497480139327136 90.6497480139962 zlo zhi

Masses

1 14.007
2 12.011
3 12.011
4 12.011
5 12.011
6 12.011
7 12.011
8 12.011
9 12.011
10 12.011
11 15.999
12 14.007
13 14.007
14 1.008
15 1.008
16 1.008
17 12.011
18 12.011
19 18.998
20 15.999
21 32.06
22 15.999
23 15.999
24 12.011
25 12.011
26 1.008
27 1.008
28 12.011
29 1.008
30 22.99
31 15.9994
32 1.008
33 1e-100

Pair Coeffs # lj/cut/coul/long/intel

1 0.17 3.25
2 0.066 3.5
3 0.07 3.55
4 0.066 3.5
5 0.07 3.55
6 0.105 3.75
7 0.066 3.5
8 0.066 3.5
9 0.066 3.5
10 0.066 3.5
11 0.21 2.96
12 0.17 3.3
13 0.17 3.25
14 0.03 2.5
15 0.03 2.42
16 0.03 2.5
17 0.105 3.75
18 0.062 3.25
19 0.22175 2.95
20 0.21 2.96
21 0.25 3.55
22 0.14006 2.9
23 0.20005 3.15
24 0.06597 3.5
25 0.066 3.5
26 0.03011 2.5
27 0.03 2.5
28 0.066 3.5
29 0.03 2.5
30 0.0028 3.33
31 0.155 3.1536
32 0 1
33 0 1

Atoms # full

2673 66 30 1 2.065349826257495 0.2537464740437571 88.69516677673683 0 0 0
2672 65 30 1 2.1112070253804425 10.445127640353713 69.94755605273154 0 0 0
2675 68 30 1 9.001197297737692 63.54077238821997 49.551993035875995 0 0 0
403 1 16 0.13 28.915660398574946 44.945057413149144 43.96849008684431 0 0 0
2201 50 28 -0.18 28.319217203438267 62.96972227456016 43.67078140741155 0 0 0
2205 50 29 0.06 29.265752926034008 62.73462227748205 43.013879385500495 0 0 0
2206 50 29 0.06 27.637830698231852 63.820510208194264 43.3305985712646 0 0 0
1332 30 26 0 24.21760035279942 63.50185394478003 44.62688850513155 0 0 0
2671 64 30 1 24.926511979466643 66.82957914951623 43.132750696844354 0 0 0
1326 30 22 -0.45 22.35880932061185 62.7997002676145 44.734427957978056 0 0 0
1328 30 23 -0.65 22.448519784494597 62.93352704736259 42.25554513329152 0 0 0
1327 30 23 -0.65 20.345641986133337 63.1398008786532 43.5420953962874 0 0 0
2204 50 29 0.06 27.736137603280547 62.08789378915438 43.73807607086883 0 0 0
1257 28 27 0.06 28.722400643581683 57.00632338837595 44.72197490466004 0 0 0
1255 28 27 0.06 28.073174767806712 59.080543194050755 44.09386481466802 0 0 0
1330 30 24 0.22 23.73391795518276 62.54779359313527 44.88513855046875 0 0 0
1333 30 26 0 24.049340067739976 61.76909000548349 44.172161353475325 0 0 0
1248 28 26 0 25.85094207703769 60.033441718004354 43.15255245691809 0 0 0
1250 28 25 -0.12 27.235279097736893 58.61053836625671 44.615136140600846 0 0 0
1242 28 22 -0.45 24.900574164017794 58.86819579984921 41.66704532803066 0 0 0
1251 28 27 0.06 26.73368460652742 57.07009542280373 43.09997696980337 0 0 0
1247 28 25 -0.12 26.346312350347382 57.99966800188855 43.514288134302795 0 0 0
1252 28 27 0.06 25.48687516547318 57.6770711704542 44.07329891310968 0 0 0
1246 28 24 0.22 26.114603170593092 59.12005972797172 42.577293980401066 0 0 0
1249 28 26 0 26.978539405649997 59.35876158109863 41.915232530487145 0 0 0
1325 30 21 1.18 21.587220693859987 62.45343539538686 43.32814455141297 0 0 0
1329 30 23 -0.65 21.420738206029792 60.98142458940165 43.300172767581394 0 0 0
2335 54 23 -0.65 24.016069091945244 50.2905083359637 44.57824445868826 0 0 0
401 1 16 0.13 29.191813954609167 46.606072523528915 44.946980640240085 0 0 0
408 1 16 0.13 29.505187934871188 47.626709151407454 42.651797357862314 0 0 0
145 1 10 -0.17 29.62091827040559 45.64590356246035 44.515213426783184 0 0 0
409 1 16 0.13 29.378017261189278 46.06797467790865 41.93558352906194 0 0 0
1245 28 23 -0.65 25.437365664552473 60.977441211169584 40.495474156011866 0 0 0
1243 28 23 -0.65 25.933694543529835 58.73985641968019 39.564148638897265 0 0 0
1241 28 21 1.18 24.998956653972755 59.61450125237488 40.22149042370204 0 0 0
1244 28 23 -0.65 23.69089979675211 59.4613963976433 39.72759599419225 0 0 0
2679 72 30 1 29.026268398903884 58.79637773399913 65.89040246011614 0 0 0
991 22 23 -0.65 26.663514204862338 57.39979592807001 63.35280020785017 0 0 0
714 15 27 0.06 27.787706835616458 60.963346841279986 57.90313532819186 0 0 0
707 15 25 -0.12 29.495530827197346 59.9457470350259 57.59642957398829 0 0 0
710 15 25 -0.12 27.985063788648592 60.11273501026558 57.32748025844647 0 0 0
709 15 27 0.06 29.215212353366564 59.64904189604614 59.71343976206104 0 0 0
1006 22 27 0.06 28.19868781215779 57.26814596447578 57.566018708611566 0 0 0
995 22 25 -0.12 29.12449441253456 56.603714010359 60.13991806343092 0 0 0
997 22 26 0 28.986083038693664 56.65710451061371 62.23843751177583 0 0 0
994 22 24 0.22 28.597070121222096 56.019673736899584 61.47931397172004 0 0 0
1000 22 27 0.06 28.629228459572087 57.583137022978725 59.92206559982943 0 0 0
1001 22 25 -0.12 28.857219064542434 56.445781776601414 57.5838579739684 0 0 0
998 22 25 -0.12 28.92237495768281 55.70666494129508 58.922677341256914 0 0 0
715 15 27 0.06 27.479462852558125 59.276624313360784 57.753144882895995 0 0 0
713 15 25 -0.12 27.743993533606485 60.089973375785995 55.82473698865486 0 0 0
992 22 23 -0.65 26.707824908495834 58.49097586139366 61.14425116020647 0 0 0
989 22 21 1.18 26.3593523291163 57.28386046091289 61.88653525938371 0 0 0
993 22 23 -0.65 24.963095659058265 56.934555115865905 61.53613284793736 0 0 0
990 22 22 -0.45 27.209231259845673 56.066240289544474 61.33207540772241 0 0 0
720 15 27 0.06 25.663286168135343 60.03778871354625 55.97796594477406 0 0 0
1004 22 25 -0.12 28.312684316113057 55.467090887344305 56.579919717775795 0 0 0
1009 22 27 0.06 28.805771543653897 54.50822655370178 56.73992586926255 0 0 0
996 22 26 0 28.907264234051038 54.91474672823264 61.581451564052756 0 0 0
1003 22 27 0.06 29.674723347170065 54.908751465842904 58.88706646404141 0 0 0
1002 22 27 0.06 27.91119141928695 55.304193398302274 59.17088571529031 0 0 0
1008 22 27 0.06 27.214291044958717 55.40909538142673 56.83378595341542 0 0 0
2281 52 27 0.06 29.14860172980288 66.28358112424071 50.65149851861494 0 0 0
2276 52 25 -0.12 29.77216084931771 66.26804907066469 49.798293530604916 0 0 0
842 18 25 -0.12 29.577444002493213 63.746042850601704 54.07833904683339 0 0 0
839 18 25 -0.12 28.0826024458793 63.85191221297848 54.27113477560893 0 0 0
844 18 27 0.06 27.877492485925995 64.73662602589135 54.91450254553471 0 0 0
840 18 27 0.06 28.017746090931556 64.477375584147 52.32267995739084 0 0 0
2283 52 27 0.06 28.409768388377763 64.86314446595887 48.66037790128767 0 0 0
2279 52 25 -0.12 28.919877981663692 65.85419579244812 48.55179744219929 0 0 0
843 18 27 0.06 27.647722674877652 63.01675503141235 54.85253257026302 0 0 0
841 18 27 0.06 27.511428408107058 62.87026010110073 52.343963114591034 0 0 0
836 18 25 -0.12 27.414588332450666 63.80633175455072 52.845772930093 0 0 0
2287 52 27 0.06 27.17628503755205 67.23976281700386 48.78226991561672 0 0 0
838 18 27 0.06 25.910604846700867 65.3009298295609 53.19164090796347 0 0 0
826 18 24 0.22 24.24395457991292 65.99097211408305 49.709514899970294 0 0 0
832 18 27 0.06 24.20233630611618 66.20925866479415 51.8050205990468 0 0 0
833 18 25 -0.12 25.990313434747872 64.28175179982739 52.71372982916409 0 0 0
834 18 27 0.06 26.34456076360434 64.94043856572065 50.70512071579786 0 0 0
830 18 25 -0.12 25.484082113654114 64.49261496949589 51.27140468008862 0 0 0
837 18 27 0.06 25.23554852729329 63.781285973743586 53.26789477480738 0 0 0
835 18 27 0.06 25.381297360632527 63.568757628435286 50.756941900615665 0 0 0
2337 54 23 -0.65 22.263590935242142 51.75814365644503 45.55605765719042 0 0 0
2336 54 23 -0.65 22.478245365318397 49.35313336439359 46.04776413376073 0 0 0
2340 54 26 0 24.873934220973343 52.619781231385964 46.523227049469796 0 0 0
831 18 27 0.06 23.382685949578256 64.9921814607217 51.23477512786028 0 0 0
2338 54 24 0.22 25.25956199381338 51.65310245284005 46.85519754678136 0 0 0
2334 54 22 -0.45 24.028716814315832 50.82555421930402 46.919607449574634 0 0 0
2341 54 26 0 25.954846513899888 51.18391243529256 46.18189655541197 0 0 0
827 18 25 -0.12 24.285401539647395 65.44226046223075 51.09399165065153 0 0 0
822 18 22 -0.45 23.21155122040852 66.92220001087775 49.582531270880246 0 0 0
2333 54 21 1.18 23.07663500562185 50.58032637863926 45.643589136035544 0 0 0
828 18 26 0 25.134599168645437 66.5873243587299 49.462641617610025 0 0 0
2339 54 25 -0.12 25.788077435907926 51.672306997774335 48.2753516645106 0 0 0
829 18 26 0 24.113813487347837 65.20538268999418 48.929105335440866 0 0 0
1344 30 27 0.06 27.268342007769267 62.538615545978864 48.694751895900495 0 0 0
2346 54 27 0.06 27.242415712634603 53.23188040452466 48.357952843496804 0 0 0
2342 54 25 -0.12 27.18370372942677 52.166258215530185 48.405096141434434 0 0 0
718 15 27 0.06 27.979065473344768 61.039222376098024 55.398475745082166 0 0 0
2347 54 27 0.06 27.739663753778892 51.926257738910365 47.557922402488465 0 0 0
1350 30 27 0.06 29.295222477350027 61.53766118980711 50.04141112543598 0 0 0
1354 30 27 0.06 28.505587572197253 60.655043199987084 52.05239178334733 0 0 0
1346 30 25 -0.12 28.880906078146985 60.51091815542393 50.033750341388135 0 0 0
2442 56 27 0.06 29.698107590541685 52.40311572599363 45.53196913521905 0 0 0
1012 22 27 0.06 28.287133251745153 57.10811598112226 55.230230875862446 0 0 0
717 15 27 0.06 28.551618570953522 59.553547936089096 55.32305697797254 0 0 0
1349 30 25 -0.12 28.98683855694621 59.96421412419043 51.44514638913874 0 0 0
1351 30 27 0.06 29.550544438748343 59.88497193717438 49.40247851962576 0 0 0
1017 22 27 0.06 28.319166680795107 55.81978282271661 52.24700928507372 0 0 0
1007 22 25 -0.12 28.495737845463385 56.064576336058465 55.16251846896522 0 0 0
1011 22 27 0.06 29.498988954873735 55.94846852121375 54.71883562908665 0 0 0
1353 30 27 0.06 28.36537152468023 59.0358118746723 51.58091430424933 0 0 0
1018 22 27 0.06 27.496867039085227 57.178096052869144 52.88932027947922 0 0 0
729 15 27 0.06 24.884244264131166 60.68237855927367 51.566413139404496 0 0 0
1343 30 25 -0.12 27.428007680801826 60.553732035515495 49.54986010085308 0 0 0
735 15 29 0.06 22.680461495088 61.1486942128205 49.98396863517779 0 0 0
1348 30 27 0.06 26.750504207921185 60.8736470408867 50.425544445660094 0 0 0
724 15 27 0.06 26.089055912482095 61.30382956015117 53.971809019180085 0 0 0
730 15 27 0.06 23.828758785009722 61.58511853732006 52.435505385203946 0 0 0
725 15 25 -0.12 24.05468504329011 60.56788588182196 52.286006213707545 0 0 0
1342 30 27 0.06 25.08580751757106 61.490427384490474 48.54263070333726 0 0 0
719 15 25 -0.12 25.993297483018374 60.21336035909949 53.91662568240191 0 0 0
716 15 25 -0.12 26.411132126342576 59.63900547428474 55.29549370993259 0 0 0
1023 22 27 0.06 27.30833906514942 56.10665350319465 49.985264082221136 0 0 0
721 15 27 0.06 26.242089448767338 58.61650215553306 55.41704312909727 0 0 0
731 15 28 -0.18 22.7131266621432 60.0768794914823 50.08845463105061 0 0 0
734 15 29 0.06 23.590592711965183 59.72169723877067 49.54312221025675 0 0 0
1347 30 27 0.06 27.175922681147142 59.56384846998627 49.1978033940594 0 0 0
728 15 25 -0.12 22.830970996324382 59.887273950735256 51.574762053676025 0 0 0
722 15 25 -0.12 24.556278239103023 59.804688872518945 53.516751145299445 0 0 0
1019 22 25 -0.12 26.353804595360483 56.39440489212322 50.48049526178662 0 0 0
1024 22 27 0.06 26.398075822283822 57.3983734430417 50.760036504428534 0 0 0
1022 22 25 -0.12 25.187404211617093 56.001121533840845 49.550811973054884 0 0 0
727 15 27 0.06 24.452923714408936 58.73391915064282 53.2892236224637 0 0 0
1030 22 29 0.06 25.951109231764786 57.14507033880796 47.97602164757479 0 0 0
1029 22 29 0.06 24.129422406743615 56.7455928916408 47.80670928564614 0 0 0
1025 22 28 -0.18 24.95690332065958 57.015742540210034 48.464124358808654 0 0 0
1258 28 27 0.06 27.341050977316026 56.748029759600406 45.639574892419915 0 0 0
1254 28 27 0.06 26.71667257331842 59.29989284257448 45.268382005383984 0 0 0
1013 22 25 -0.12 27.41627332949827 56.07433923848008 52.7369047176693 0 0 0
1341 30 27 0.06 25.6113734657387 60.17870171286177 47.57510681211464 0 0 0
1337 30 25 -0.12 25.81256236105161 61.26485062190762 47.75036835623647 0 0 0
1335 30 27 0.06 23.655798014421844 61.183482393350445 46.57459902904888 0 0 0
1340 30 25 -0.12 27.184741375294454 61.47307078088384 48.39240032528357 0 0 0
1339 30 27 0.06 25.99452239524573 61.87123327716979 45.69445006734563 0 0 0
1334 30 25 -0.12 25.5303599390288 62.226172742140044 46.58362488934814 0 0 0
1331 30 25 -0.12 24.060421054014547 62.150984288416176 46.37080422669628 0 0 0
1264 28 27 0.06 29.257733950968042 56.136351682441614 47.161561453701566 0 0 0
1260 28 27 0.06 28.021444152213608 58.03734060694938 47.5309208410027 0 0 0
1259 28 25 -0.12 29.747447103005435 57.11747818700789 46.95141716634806 0 0 0
1256 28 25 -0.12 28.64407093798399 58.03894689780639 46.66266193867718 0 0 0
1261 28 27 0.06 28.908736632861412 59.06433194155603 46.541433577778314 0 0 0
1253 28 25 -0.12 27.97182958100029 57.57657282593094 45.358534212710666 0 0 0
1345 30 27 0.06 27.93796179745861 61.44214652701068 47.58171835291079 0 0 0
2199 50 27 0.06 29.453140992154328 61.501894772178694 45.44774791182963 0 0 0
1016 22 25 -0.12 26.26760373753739 55.66996641831272 51.84677576781721 0 0 0
733 15 27 0.06 22.855288063768054 58.85179881867979 51.802971269304685 0 0 0
1026 22 27 0.06 24.396180144999956 55.86226195526097 50.28147781107737 0 0 0
726 15 27 0.06 23.87561029530373 59.98690408915293 54.35100208207288 0 0 0
1028 22 29 0.06 24.671355771196104 57.91459266950403 48.98802014731627 0 0 0
1014 22 27 0.06 26.449652581676837 55.57162754011989 54.684330272844186 0 0 0
1020 22 27 0.06 25.38985406928819 55.92143624137532 52.333050152713234 0 0 0
723 15 27 0.06 26.654325470418463 59.84606729264337 53.11127199425844 0 0 0
736 15 29 0.06 21.815934086221095 59.69463890297501 49.62288754097602 0 0 0
732 15 27 0.06 21.927613075780545 60.17705936640638 52.1803529476424 0 0 0
2351 54 25 -0.12 29.398373002901845 52.508085338580955 51.610347362003075 0 0 0
2348 54 25 -0.12 28.961736277194856 52.68135055746918 50.158703395288136 0 0 0
2355 54 27 0.06 29.567206600552318 51.52028419773879 51.848093503614855 0 0 0
2356 54 27 0.06 28.683277749580697 52.85121933916523 52.29607362498316 0 0 0
2352 54 27 0.06 28.58547010148768 53.66111508642352 50.07559636582976 0 0 0
2349 54 27 0.06 28.25616265189063 50.693805706337116 49.771226224009176 0 0 0
2345 54 25 -0.12 27.843848802675282 51.72506299295906 49.72161967784606 0 0 0
1015 22 27 0.06 27.5646915908972 54.344476126407535 54.04507148057523 0 0 0
1010 22 25 -0.12 27.453271156140236 55.4413042688166 54.15463658962004 0 0 0
1027 22 27 0.06 25.276834739559806 55.012474505441475 49.0906324503471 0 0 0
2350 54 27 0.06 27.122981827448456 51.80126882170538 50.50605915998463 0 0 0
1021 22 27 0.06 26.213098173049254 54.60996519990599 51.69138338776136 0 0 0
1338 30 27 0.06 25.927164654825777 63.19513357957581 46.85538762344149 0 0 0
2344 54 27 0.06 25.243695580830288 52.36830552905985 48.913030741820855 0 0 0
1336 30 27 0.06 23.725118519423937 62.86672720913507 47.15074933095196 0 0 0
2289 52 29 0.06 27.099915889175 65.6481519002283 46.61470347019722 0 0 0
2343 54 27 0.06 25.694623204676407 50.66502776570898 48.70751115744835 0 0 0
2288 52 29 0.06 27.04699907599346 67.47277962716 46.20227664180249 0 0 0
2202 50 27 0.06 29.134356080132726 64.3974901188844 45.08552555415054 0 0 0
2285 52 28 -0.18 27.559088754797102 66.59958272406261 46.66402191966481 0 0 0
2290 52 29 0.06 28.52623334301363 66.49184534637031 46.1589034325216 0 0 0
2284 52 27 0.06 29.521049445942705 65.63060198213311 47.694431528726525 0 0 0
2203 50 27 0.06 27.964037951848063 63.323919067266104 45.70142626394314 0 0 0
2282 52 25 -0.12 27.9823003543411 66.97369587880823 48.08498366374243 0 0 0
2198 50 25 -0.12 28.7929293165512 63.39609258372447 45.034043247629135 0 0 0
847 18 27 0.06 29.773752049778093 62.84242449976604 53.47422646205868 0 0 0
585 4 19 -0.2 29.750957732149985 56.40671523410167 84.46222944417079 0 0 0
587 4 19 -0.2 28.925394655109773 54.948215160588795 85.9559588587805 0 0 0
586 4 19 -0.2 29.440511259379825 54.30903071434449 83.90219683732117 0 0 0
2669 62 30 1 17.276339955943794 74.66640008031764 53.66959100538805 0 0 0
824 18 23 -0.65 24.285065210552695 69.01434784381553 50.15380641300741 0 0 0
821 18 21 1.18 23.47009678623665 68.43642468631086 49.08946279221516 0 0 0
823 18 23 -0.65 22.112672434716938 68.91629487285809 49.0331852905409 0 0 0
825 18 23 -0.65 24.15084415093034 68.36793673278326 47.79021938029498 0 0 0
2286 52 27 0.06 28.590044837185705 67.86175389708274 47.930382347061105 0 0 0
2684 77 30 1 24.125274379126765 89.57526425944381 79.15733528649102 0 0 0
324 1 15 0.115 42.143235526595525 42.139183790510714 41.89790733309738 0 0 0
97 1 3 -0.115 42.41470237071403 41.5853875575133 44.9256104090846 0 0 0
405 1 16 0.13 30.819478075325247 44.19081852116456 42.640145059726706 0 0 0
406 1 16 0.13 31.851715438191178 44.50693508003121 44.02877698331715 0 0 0
146 1 10 -0.17 31.386053954369263 44.96163438841146 43.15281294284894 0 0 0
123 1 3 -0.115 44.24340278180466 38.84793426308719 44.77818457542808 0 0 0
373 1 15 0.115 42.46034150899696 35.423642323949565 44.16699319507658 0 0 0
126 1 3 -0.115 42.88470550414286 36.364692367146276 44.36051314746784 0 0 0
96 1 5 0.21 41.943926736848304 40.71686419348959 43.999322195204364 0 0 0
124 1 5 0.21 43.23031032420019 38.771904127451386 43.80406087878263 0 0 0
125 1 3 -0.115 42.4725751032669 37.5648779557664 43.71541443490386 0 0 0
226 1 12 -0.63 42.81884607928383 39.91474547546255 43.252751243449424 0 0 0
68 1 5 0.21 42.72045236871921 40.00360687086007 41.90191591703862 0 0 0
372 1 15 0.115 41.62897713614616 37.465022059980036 43.04208688022602 0 0 0
471 1 14 0.06 44.72556527995795 34.62499124361763 42.907096678373435 0 0 0
323 1 15 0.115 43.44107306096673 38.012654790521275 41.51650500012944 0 0 0
346 1 15 0.115 38.62758818133066 41.05775158253401 44.79161320234028 0 0 0
94 1 3 -0.115 39.63153966530427 41.24715143508664 44.69886687446364 0 0 0
95 1 3 -0.115 40.56296236092341 40.46327787992111 43.972170262507234 0 0 0
347 1 15 0.115 40.21326249744959 39.64577106950298 43.391920534871815 0 0 0
470 1 14 0.06 44.296575445103876 33.1914169824233 43.81632292871 0 0 0
474 1 16 0.13 43.32345415899235 32.15837617939209 41.84440859938731 0 0 0
1286 29 23 -0.65 40.632106523376926 33.988065833084164 41.67040458373715 0 0 0
6 1 3 -0.115 43.853670750456196 43.33056812602536 35.871695886188334 0 0 0
5 1 3 -0.115 42.56897586602438 43.13919877763388 36.38313093325366 0 0 0
4 1 3 -0.115 42.0280584535468 44.118824705764844 37.17555729788602 0 0 0
7 1 3 -0.115 44.67865179590742 44.33650218853049 36.401875722214506 0 0 0
12 1 4 -0.065 44.41464178098183 42.31649169758382 34.90884736602203 0 0 0
11 1 2 0.225 41.679161607012645 42.040141830018385 35.92454640141945 0 0 0
325 1 15 0.115 42.10432687134623 42.492349632254346 39.53059065965789 0 0 0
10 1 4 -0.065 40.58281850294654 44.039313166782506 37.73467039293658 0 0 0
252 1 14 0.06 39.88911017410244 43.52883216359421 37.12939523020272 0 0 0
254 1 14 0.06 40.573932932684926 43.626916892195005 38.6845816926888 0 0 0
256 1 14 0.06 40.78570771391021 42.49882442170727 35.51628339138163 0 0 0
255 1 14 0.06 42.04005845834477 41.46465801084204 35.06326331958431 0 0 0
259 1 14 0.06 44.2197220931688 41.23980673552514 35.10250841517037 0 0 0
69 1 3 -0.115 42.330375889208696 41.258424296510825 41.282273713103315 0 0 0
67 1 3 -0.115 43.1447820823099 38.98140320509797 41.050017930884465 0 0 0
322 1 15 0.115 43.405862761401 38.40889237345954 38.92085985344782 0 0 0
320 1 14 0.06 43.56325127149247 40.94983303795806 37.3259360383643 0 0 0
70 1 3 -0.115 42.27304334556823 41.453114160518204 39.893834604790285 0 0 0
64 1 2 0.225 42.57351133970121 40.52652304013483 37.59376282211643 0 0 0
65 1 3 -0.115 42.69766583691355 40.37235266454659 39.11591752073843 0 0 0
66 1 3 -0.115 43.078503055797626 39.13073952835042 39.62599816379001 0 0 0
321 1 14 0.06 42.630143441492976 39.48498130050705 37.14732333352325 0 0 0
1287 29 23 -0.65 41.989750760576946 35.296604196476345 40.056216484995176 0 0 0
1285 29 23 -0.65 40.14630721514824 36.27366478317308 41.412448371074206 0 0 0
450 1 16 0.13 37.1455293490805 36.94407574573306 41.15804112809166 0 0 0
447 1 16 0.13 36.07914661397198 38.828315244692625 40.24696078205765 0 0 0
1283 29 21 1.18 40.708051938644445 35.12550913680698 40.7354804697001 0 0 0
225 1 1 -0.36 41.39597924379404 41.155158016964144 36.98038992328815 0 0 0
441 1 14 0.06 40.61778260518963 38.90710210005346 38.33853722700984 0 0 0
440 1 14 0.06 39.83038650807251 40.13381465387354 39.228032836571735 0 0 0
162 1 6 0.5 40.194224104484235 40.650908847585846 37.16916388089118 0 0 0
215 1 11 -0.6 39.31888427341387 40.949397487810224 36.32223210437105 0 0 0
163 1 7 -0.12 39.88300093925314 39.661835494730425 38.29218219712762 0 0 0
166 1 10 -0.17 35.89361312716216 38.25822315734078 39.35090032810188 0 0 0
446 1 16 0.13 35.75613670050373 38.934001871261025 38.446372816185374 0 0 0
443 1 14 0.06 37.88143244865659 39.852841962870016 37.82878611184158 0 0 0
442 1 14 0.06 38.58650253304025 38.508829650734356 37.06530442471835 0 0 0
164 1 8 0.01 38.55529865986832 39.01549916260816 38.021025274827224 0 0 0
444 1 16 0.13 38.294733340177224 38.59214565959631 40.07407399216263 0 0 0
445 1 16 0.13 39.026958025574366 37.2807529039482 39.06072770711182 0 0 0
165 1 9 -0.17 38.21995312138209 38.02739437868207 39.148576615056484 0 0 0
241 1 13 0.12 36.92057479677752 37.36871701117377 39.10429923524509 0 0 0
168 1 10 -0.17 36.56357880789285 36.739154411305755 37.8704113216641 0 0 0
448 1 16 0.13 34.91408484231311 37.81571019903591 39.434853804212544 0 0 0
454 1 16 0.13 36.43242198542437 37.42276663054037 36.985331736675334 0 0 0
167 1 10 -0.17 36.84538921972801 36.46284259493759 40.225925416973574 0 0 0
452 1 16 0.13 35.633599757812725 36.13596787226912 37.81131139612064 0 0 0
453 1 16 0.13 37.35600784488124 36.02262281341705 37.58065973000607 0 0 0
451 1 16 0.13 37.61768744068977 35.64431056978205 40.06349184504325 0 0 0
449 1 16 0.13 35.942110474648885 35.90631499841516 40.413480300093475 0 0 0
1284 29 22 -0.45 39.62059228405699 34.663737561878214 39.68028647912268 0 0 0
1303 29 27 0.06 39.64768451511725 35.98668737476738 34.9914087204042 0 0 0
1297 29 27 0.06 39.60650121859673 35.54979205776447 37.1052244816663 0 0 0
1299 29 27 0.06 37.686491474997034 34.823559467854516 35.67726795173092 0 0 0
1298 29 25 -0.12 39.507620125435665 35.012404468927876 34.52317105234003 0 0 0
1292 29 25 -0.12 39.4437054341685 34.49109124372991 36.7859035403651 0 0 0
179 1 9 -0.17 44.14399163360212 32.525641836455556 41.29065033259717 0 0 0
483 1 16 0.13 44.2855048735431 29.88352902857688 41.27886103335547 0 0 0
182 1 10 -0.17 44.896875479636016 30.37870704557758 40.51672977561353 0 0 0
475 1 16 0.13 43.792290518343336 33.46193811264806 40.85849062487434 0 0 0
243 1 13 0.12 44.356996807097254 31.711321483695848 40.112234985892066 0 0 0
181 1 10 -0.17 43.11254796897176 31.574239176879683 39.40025983388783 0 0 0
481 1 16 0.13 42.72298630177181 32.52584954909546 39.06776564755351 0 0 0
479 1 16 0.13 42.34408589248203 31.193060604691116 39.9992258217524 0 0 0
480 1 16 0.13 43.180991266040486 30.855517983526653 38.60595579087287 0 0 0
482 1 16 0.13 44.869976551457974 29.708884160400935 39.642856323024084 0 0 0
1296 29 27 0.06 40.42235535874595 34.18230271036518 36.65827245720098 0 0 0
1291 29 26 0 40.79489712892287 33.44453933695024 38.81045265882017 0 0 0
1290 29 26 0 39.52231725480346 32.70363738449944 39.679031501722335 0 0 0
1288 29 24 0.22 39.751201405743686 33.560120474133704 39.070074312311434 0 0 0
1294 29 27 0.06 38.70595600730412 32.59780513091201 37.33193126279262 0 0 0
1289 29 25 -0.12 38.86331261615501 33.615524996660085 37.847948165541894 0 0 0
1293 29 27 0.06 37.87397523111749 33.86176721116586 38.1848980375603 0 0 0
1295 29 25 -0.12 38.64182550267663 34.38352228565396 35.53068172962075 0 0 0
1300 29 27 0.06 38.40520237559438 33.38564426307914 35.22248433319517 0 0 0
2143 49 27 0.06 36.58714170473857 31.86839692052824 34.89781089523986 0 0 0
2137 49 27 0.06 38.61726408696294 30.30309253367049 35.32900711872803 0 0 0
1302 29 27 0.06 40.346008995191255 34.421873349986164 34.508597705410594 0 0 0
2133 49 27 0.06 38.572961848243786 27.980435791574767 34.91301604010663 0 0 0
2139 49 27 0.06 36.3204172514179 29.415334085139694 34.72373741054742 0 0 0
2131 49 26 0 40.963280542692594 28.87983778959543 34.851562052790776 0 0 0
2126 49 23 -0.65 42.24612788686986 26.637380223035766 34.98684176814324 0 0 0
258 1 14 0.06 43.95142707286032 42.51087380041738 33.93687684819249 0 0 0
1321 29 27 0.06 41.93470662135689 35.41636770328959 27.646300589979706 0 0 0
1309 29 27 0.06 40.27521701751937 36.46559693662748 31.96142130663521 0 0 0
1315 29 27 0.06 40.645349581129146 36.485909113385816 29.79003383744661 0 0 0
1310 29 25 -0.12 40.42418844745338 35.38018994818546 29.717533824656588 0 0 0
1311 29 27 0.06 38.43600974196276 35.3160374514639 30.57023694587525 0 0 0
1317 29 27 0.06 39.307674127789106 35.91860704620477 27.992347688535048 0 0 0
1305 29 27 0.06 38.15559745488845 36.076272484542876 33.24741569854259 0 0 0
1307 29 25 -0.12 39.42010471735599 34.85109781815762 30.849511300574008 0 0 0
1304 29 25 -0.12 39.86856817597448 35.461625250112576 32.12760198875784 0 0 0
1313 29 25 -0.12 39.93546559472164 35.07773837189184 28.290545636192025 0 0 0
1320 29 27 0.06 41.53987060934572 33.82227318262124 27.29917456805289 0 0 0
1301 29 25 -0.12 38.80400706597352 35.217691657022115 33.17591543675269 0 0 0
1314 29 27 0.06 41.45521558189387 34.92708776957945 29.863583600500007 0 0 0
1308 29 27 0.06 40.77133192810496 34.96484181125093 32.39410735131643 0 0 0
2160 49 27 0.06 33.77379826676362 35.508802335075586 28.806376868409476 0 0 0
2161 49 27 0.06 32.42154225099877 36.32470095279953 29.7261171797398 0 0 0
2156 49 25 -0.12 32.723284537340064 35.44345363468515 29.169991350061384 0 0 0
2159 49 28 -0.18 31.806925047879364 35.324999833498275 27.934436203141825 0 0 0
2163 49 29 0.06 30.800304771161535 35.25043773515894 28.14729058975256 0 0 0
2155 49 27 0.06 32.81221102900334 35.15029969702346 32.04826286775896 0 0 0
2154 49 27 0.06 34.25209834913754 34.7465194098667 31.184488552620085 0 0 0
2125 49 23 -0.65 43.15993215631623 27.65378046246223 33.06819941201009 0 0 0
2136 49 27 0.06 39.01910936344548 30.6115158986082 33.64374397162874 0 0 0
2135 49 25 -0.12 36.91873077803249 29.997154780576604 33.98012502995906 0 0 0
2132 49 25 -0.12 38.41966980125787 30.03497426654549 34.32068717806371 0 0 0
2138 49 25 -0.12 36.474887924822916 31.44594505829825 33.92038045777924 0 0 0
2142 49 27 0.06 37.14132208692107 31.976520049597976 33.264424247674896 0 0 0
2141 49 25 -0.12 35.000308243544374 31.565954883009923 33.42866064806714 0 0 0
1312 29 27 0.06 39.323035830697094 33.74462825368158 30.867138359735023 0 0 0
1306 29 27 0.06 38.21632439886746 34.32793566548244 32.905557645486645 0 0 0
2148 49 27 0.06 35.2865750672996 33.61932714238364 32.914749788192985 0 0 0
2162 49 29 0.06 31.994653883973776 36.132862684391725 27.225152188563758 0 0 0
2146 49 27 0.06 34.97899494147415 31.159144788425913 32.4355477430943 0 0 0
1318 29 27 0.06 39.405849355327334 34.09113567998022 28.381624779268037 0 0 0
2128 49 24 0.22 40.446317297319325 28.72013617291347 33.88717677774728 0 0 0
2129 49 25 -0.12 38.94022550682369 28.617708628277303 34.1349860561771 0 0 0
2130 49 26 0 40.705400401224466 29.537456794811593 33.204295928322736 0 0 0
2164 49 29 0.06 32.091367029071904 34.462406991505205 27.372269174894377 0 0 0
2134 49 27 0.06 38.537039346323745 28.17032870931791 33.19849549487908 0 0 0
1322 29 29 0.06 39.87378356787607 34.680870058047404 25.46352928934271 0 0 0
1319 29 28 -0.18 40.64806191504469 35.30108690861678 25.93388086209921 0 0 0
1324 29 29 0.06 40.24961458405793 36.31660847859976 26.065834553007246 0 0 0
1316 29 25 -0.12 41.09030151473314 34.856515027103534 27.317622832864334 0 0 0
2140 49 27 0.06 36.71444283997107 29.660294192258178 32.97427168318473 0 0 0
2124 49 22 -0.45 40.77853275986964 27.521864775693533 33.31596012476823 0 0 0
2145 49 27 0.06 34.325573880151715 30.839895731680482 33.998113985000124 0 0 0
2149 49 27 0.06 34.017188810823924 33.28784540830907 34.20285396748551 0 0 0
2153 49 25 -0.12 32.47819242524687 34.27917270745204 30.099288720662056 0 0 0
2157 49 27 0.06 31.427425333110335 34.105492504387044 30.368647223921172 0 0 0
2150 49 25 -0.12 33.21159971888537 34.41009248926261 31.425338920908448 0 0 0
2144 49 25 -0.12 34.44589356240496 32.98497769596884 33.21279255066368 0 0 0
2152 49 27 0.06 33.33323947218802 32.27768494424324 31.363703016229437 0 0 0
2147 49 25 -0.12 33.30975900653885 33.08057700998741 32.1702175947243 0 0 0
2158 49 27 0.06 32.87188292371373 33.44554815873105 29.505237366937504 0 0 0
2151 49 27 0.06 32.38761888428688 32.88917143386308 32.66874049433834 0 0 0
2123 49 21 1.18 42.16586535111512 26.76381685507317 33.60350565661917 0 0 0
2127 49 23 -0.65 42.12002282838765 25.488084774839486 32.97071844494367 0 0 0
1323 29 29 0.06 41.44356839264622 35.3122003765164 25.197788654043002 0 0 0
159 1 10 -0.17 36.61853471604874 44.87879546370577 56.584883729096155 0 0 0
431 1 16 0.13 37.575616214872625 44.24456939187357 56.60570542490518 0 0 0
432 1 16 0.13 35.98322843557776 44.40776717988957 57.367769203900245 0 0 0
435 1 16 0.13 35.436589094428875 42.78722587575329 55.53415319871155 0 0 0
438 1 16 0.13 34.034922671954924 44.26339861053133 55.76257173911302 0 0 0
419 1 16 0.13 43.72250583315479 42.12291960572965 52.648004654736646 0 0 0
416 1 16 0.13 43.13739065556783 43.65744912361982 54.32881108385298 0 0 0
152 1 10 -0.17 42.18994038089633 43.22673896560056 54.57311998128391 0 0 0
239 1 13 0.12 41.79682451581864 42.33140062907442 53.48043326281026 0 0 0
414 1 16 0.13 42.011429915042214 44.08088180583325 52.165140151619084 0 0 0
413 1 14 0.06 41.62328501050694 41.718959536239154 50.640482066878825 0 0 0
410 1 14 0.06 41.54291528403206 43.7813943662275 49.65525730057472 0 0 0
153 1 10 -0.17 42.90996773329705 41.54812300487612 53.0386947333485 0 0 0