#LAMMPS data file generated on 2023-10-13 via gen_data.py, version 1 May 2020

695 atoms
30 atom types
701 bonds
32 bond types
1279 angles
56 angle types
1737 dihedrals
56 dihedral types

0.0000000000000000e+00   9.0000000000000000e+01    xlo xhi
0.0000000000000000e+00   9.0000000000000000e+01    ylo yhi
0.0000000000000000e+00   9.0000000000000000e+01    zlo zhi

Masses

1  32.06000  # SO
2  15.99900  # OC4
3  15.99900  # OS4
4  12.01100  # CS4
5  12.01100  # C22
6   1.00800  # HS4
7   1.00800  # H2
8  12.01100  # C3
9   1.00800  # H3
10 22.99000  # Na+
11 14.00700  # N847
12 12.01100  # C187
13 12.01100  # C90
14 12.01100  # C80
15 12.01100  # C90X
16 12.01100  # C177
17 12.01100  # C81
18 12.01100  # C2
19 12.01100  # C1A
20 12.01100  # C1
21 15.99900  # O846
22 14.00700  # N732
23 14.00700  # N231
24  1.00800  # H85
25  1.00800  # H91
26  1.00800  # H1
27 12.01100  # C213
28 12.01100  # C103
29 18.99800  # F106
30 15.99900  # O214

Atoms

1             1    1  1.18000   18.4260312046   13.6386010925   19.9024741277 0 0 0
2             1    2 -0.45000   17.7087507601   14.7235832250   18.7619319163 0 0 0
3             1    3 -0.65000   17.3895454508   13.0668308206   21.1456209566 0 0 0
4             1    3 -0.65000   19.0990072438   12.4539653021   19.1882057644 0 0 0
5             1    3 -0.65000   19.6031936713   14.3692902988   20.5657228073 0 0 0
6             1    4  0.22000   17.0181856868   13.9805550424   17.7889951252 0 0 0
7             1    5 -0.12000   16.2919940690   14.9629950007   16.8682066247 0 0 0
8             1    6  0.00000   16.2650279525   13.3095640421   18.2632424285 0 0 0
9             1    6  0.00000   17.7383039520   13.3909331721   17.1791396225 0 0 0
10            1    5 -0.12000   15.5360769979   14.2765177429   15.7182921252 0 0 0
11            1    7  0.06000   17.0465122511   15.6583210833   16.4372600483 0 0 0
12            1    7  0.06000   15.5750767932   15.5558442678   17.4798890310 0 0 0
13            1    5 -0.12000   14.8533132575   15.3382345198   14.8386278936 0 0 0
14            1    7  0.06000   14.7714211199   13.5833590162   16.1325195601 0 0 0
15            1    7  0.06000   16.2542426343   13.6914412184   15.1027333715 0 0 0
16            1    5 -0.12000   14.0894760064   14.7412944370   13.6451316886 0 0 0
17            1    7  0.06000   15.6316134207   16.0326921204   14.4507471170 0 0 0
18            1    7  0.06000   14.1418178858   15.9187301144   15.4670132855 0 0 0
19            1    5 -0.12000   13.4446623404   15.8690992052   12.8175939306 0 0 0
20            1    7  0.06000   13.3002779800   14.0524983160   14.0158315388 0 0 0
21            1    7  0.06000   14.7939769287   14.1675915313   13.0038646408 0 0 0
22            1    5 -0.12000   12.6620984153   15.3475225933   11.6014999617 0 0 0
23            1    7  0.06000   14.2444489418   16.5557202800   12.4606473073 0 0 0
24            1    7  0.06000   12.7505953492   16.4423702814   13.4709003556 0 0 0
25            1    5 -0.12000   12.0430680269   16.5190823071   10.8178908657 0 0 0
26            1    7  0.06000   11.8540951095   14.6661960805   11.9470688268 0 0 0
27            1    7  0.06000   13.3482300406   14.7800069309   10.9355086962 0 0 0
28            1    5 -0.12000   11.2437374328   16.0441547521    9.5947439330 0 0 0
29            1    7  0.06000   12.8557349136   17.1980459055   10.4770830560 0 0 0
30            1    7  0.06000   11.3646314312   17.0879309939   11.4921289224 0 0 0
31            1    5 -0.12000   10.6374701445   17.2372505032    8.8383065570 0 0 0
32            1    7  0.06000   10.4259709826   15.3688364330    9.9303839200 0 0 0
33            1    7  0.06000   11.9170893618   15.4802260190    8.9119653717 0 0 0
34            1    5 -0.12000    9.8323991384   16.7791169528    7.6152549125 0 0 0
35            1    7  0.06000   11.4560657135   17.9126767034    8.5021180049 0 0 0
36            1    7  0.06000    9.9672074072   17.8034772390    9.5225602721 0 0 0
37            1    8 -0.18000    9.2314401124   17.9691515382    6.8680615408 0 0 0
38            1    7  0.06000    9.0062464430   16.1095617378    7.9411759734 0 0 0
39            1    7  0.06000   10.4930682722   16.2184298686    6.9194134871 0 0 0
40            1    9  0.06000    8.5450420454   18.5374810232    7.5319872068 0 0 0
41            1    9  0.06000    8.6545228188   17.6077644976    5.9906455373 0 0 0
42            1    9  0.06000   10.0338034506   18.6470257682    6.5078205079 0 0 0
43            2   10  1.00000   75.0000000000   15.0000000000   45.0000000000 0 0 0
44            3   11 -0.36000   50.0049772583    7.2893237787   42.0104535688 0 0 0
45            3   12  0.22500   49.0037595291    6.6169682612   42.9963141658 0 0 0
46            3   13 -0.11500   48.9792084323    9.3590339857   40.0658065636 0 0 0
47            3   13 -0.11500   49.7735879337   10.4414095395   40.4660781816 0 0 0
48            3   13 -0.11500   49.8601095596   11.6537411942   39.7078176938 0 0 0
49            3   13 -0.11500   49.0524734079   11.8949655934   38.5660385401 0 0 0
50            3   13 -0.11500   48.1253897796   10.9278928563   38.1316513082 0 0 0
51            3   13 -0.11500   48.0609380467    9.6598583633   38.9053750953 0 0 0
52            3   12  0.22500   49.1795054917    7.8768872409   40.7834855414 0 0 0
53            3   14 -0.06500   50.5355384525   10.3474998510   41.7427654484 0 0 0
54            3   12  0.22500   50.9894936558   12.6326140005   40.0225375572 0 0 0
55            3   14 -0.06500   49.2077766802   13.2150206555   37.8172518372 0 0 0
56            3   12  0.22500   47.4392809655   11.1900511574   36.6971779831 0 0 0
57            3   14 -0.06500   46.9617046675    8.6791685233   38.5155977029 0 0 0
58            3   13 -0.11500   35.2871388347   13.1285921895   44.6166207854 0 0 0
59            3   13 -0.11500   36.3506436896   12.3337848804   45.1314875301 0 0 0
60            3   13 -0.11500   37.3679862145   11.8548320887   44.2588619459 0 0 0
61            3   13 -0.11500   37.2474065772   12.0855243412   42.8496796881 0 0 0
62            3   13 -0.11500   36.0891639553   12.7366336680   42.3377532545 0 0 0
63            3   13 -0.11500   35.1368181916   13.3039539686   43.2188407774 0 0 0
64            3   12  0.22500   34.2765122629   13.7775826894   45.5597593031 0 0 0
65            3   14 -0.06500   36.3949195708   12.0369056017   46.6196445582 0 0 0
66            3   12  0.22500   38.6451690102   11.2236551178   44.8409733938 0 0 0
67            3   14 -0.06500   38.3468576096   11.6310163676   41.8802778471 0 0 0
68            3   12  0.22500   35.8497013871   12.7543221891   40.8384751633 0 0 0
69            3   14 -0.06500   33.9401261188   14.1019341876   42.7036615338 0 0 0
70            3   13 -0.11500   45.4982430207   24.8131057165   44.0225425595 0 0 0
71            3   13 -0.11500   44.2375970075   24.2358532859   44.3661124370 0 0 0
72            3   13 -0.11500   43.3563030631   23.8405299937   43.3189512849 0 0 0
73            3   13 -0.11500   43.6595881931   24.1460115521   41.9543472591 0 0 0
74            3   13 -0.11500   44.9180221751   24.7468148073   41.6310619959 0 0 0
75            3   13 -0.11500   45.8756167626   24.9858165878   42.6613768774 0 0 0
76            3   12  0.22500   47.3063717327   25.4120952156   42.2974390434 0 0 0
77            3   14 -0.06500   46.4002404905   25.3076135424   45.1377315903 0 0 0
78            3   12  0.22500   43.7718285031   24.2185000018   45.8552405590 0 0 0
79            3   14 -0.06500   42.0530101805   23.1743581140   43.6877516221 0 0 0
80            3   12  0.22500   42.5348068831   24.0538783167   40.9052645780 0 0 0
81            3   14 -0.06500   45.2468232476   25.2096298424   40.2082418745 0 0 0
82            3   13 -0.11500   47.6586666332   15.0362452379   51.8596671595 0 0 0
83            3   13 -0.11500   48.0342058288   13.6631101396   52.0137331009 0 0 0
84            3   13 -0.11500   47.6048467593   12.9172423388   53.1611567425 0 0 0
85            3   13 -0.11500   46.6627443587   13.5078774675   54.0540549514 0 0 0
86            3   13 -0.11500   46.2353050987   14.8574139398   53.8537452194 0 0 0
87            3   13 -0.11500   46.8028698742   15.6322388946   52.8203858844 0 0 0
88            3   12  0.22500   48.1690347063   15.8882533948   50.6815553097 0 0 0
89            3   14 -0.06500   48.9247133318   13.0254002901   50.9621687733 0 0 0
90            3   12  0.22500   48.1818553619   11.5031241235   53.4266294261 0 0 0
91            3   14 -0.06500   46.0688070141   12.7198469026   55.2172992334 0 0 0
92            3   12  0.22500   45.1715323094   15.4953059585   54.7622672198 0 0 0
93            3   14 -0.06500   46.4655755727   17.1070773281   52.7846067119 0 0 0
94            3   13 -0.11500   47.8219434172    7.2754071248   43.9978125135 0 0 0
95            3   13 -0.11500   46.9840017863    6.3320299664   44.6949791794 0 0 0
96            3   13 -0.11500   45.9827202895    6.6630361946   45.6682618933 0 0 0
97            3   15  0.21000   45.6986332405    7.9784327603   46.0631383593 0 0 0
98            3   13 -0.11500   46.4390953562    8.9726755057   45.3545071305 0 0 0
99            3   13 -0.11500   47.4579759963    8.6383390696   44.3474726778 0 0 0
100           3   12  0.22500   45.1115050993   12.0802915229   37.1952398350 0 0 0
101           3   13 -0.11500   44.3422583237   13.4176130093   37.3073631621 0 0 0
102           3   13 -0.11500   43.0068966771   13.4691686467   36.8935500534 0 0 0
103           3   13 -0.11500   42.2365558097   14.6102467954   37.0922548762 0 0 0
104           3   15  0.21000   42.7835059446   15.7665600434   37.6846122197 0 0 0
105           3   13 -0.11500   44.1596695462   15.7776758085   37.9753907975 0 0 0
106           3   13 -0.11500   44.9278357318   14.6047789263   37.8044679645 0 0 0
107           3   12  0.22500   49.9083343010   14.5094249639   41.1123288479 0 0 0
108           3   13 -0.11500   50.0006339399   15.6081296804   42.1394012517 0 0 0
109           3   13 -0.11500   51.1288538187   16.4435466560   42.1913568305 0 0 0
110           3   13 -0.11500   51.1985085132   17.4801822198   43.1226762877 0 0 0
111           3   15  0.21000   50.1550804190   17.6924745736   44.0310615412 0 0 0
112           3   13 -0.11500   49.0203333413   16.8590820889   43.9687475305 0 0 0
113           3   13 -0.11500   48.9388881342   15.8397272582   43.0187904749 0 0 0
114           3   12  0.22500   35.8026754372   15.6960840025   46.2311367504 0 0 0
115           3   13 -0.11500   37.1135132582   16.0026327246   46.9665285426 0 0 0
116           3   13 -0.11500   38.2392488770   15.1518871505   46.9795394888 0 0 0
117           3   13 -0.11500   39.4592509042   15.5810981097   47.5464918731 0 0 0
118           3   15  0.21000   39.5934003051   16.8814176167   48.0706894676 0 0 0
119           3   13 -0.11500   38.4656506668   17.7195692587   48.0649817124 0 0 0
120           3   13 -0.11500   37.2498609053   17.2812838713   47.5402301762 0 0 0
121           3   12  0.22500   37.0728882148   14.9849615039   40.6777293017 0 0 0
122           3   13 -0.11500   38.3495222386   15.5024082554   40.0456569732 0 0 0
123           3   13 -0.11500   39.5533154483   14.8159062115   40.2054094447 0 0 0
124           3   13 -0.11500   40.7042803392   15.2648334641   39.5673082444 0 0 0
125           3   15  0.21000   40.6903499737   16.4166016131   38.7442753922 0 0 0
126           3   13 -0.11500   39.4866555589   17.1260998129   38.6127038903 0 0 0
127           3   13 -0.11500   38.3264886267   16.6656752235   39.2511707155 0 0 0
128           3   12  0.22500   39.1210249544    9.5588719415   46.6933440631 0 0 0
129           3   13 -0.11500   40.5806139555    9.1571949978   46.7698788960 0 0 0
130           3   13 -0.11500   41.5758513559   10.0442048468   46.3362834108 0 0 0
131           3   13 -0.11500   42.9337237817    9.7074700775   46.4365090076 0 0 0
132           3   15  0.21000   43.3387767007    8.4717395073   46.9717651060 0 0 0
133           3   13 -0.11500   42.3331597299    7.5967735165   47.4490093026 0 0 0
134           3   13 -0.11500   40.9703084556    7.9323682475   47.3407892464 0 0 0
135           3   12  0.22500   49.3482196169   18.1111013881   50.6288794560 0 0 0
136           3   13 -0.11500   49.5882658763   18.1866249174   49.1361889355 0 0 0
137           3   13 -0.11500   50.8827559597   18.3876870169   48.6319286297 0 0 0
138           3   13 -0.11500   51.0883990147   18.5452588061   47.2589147678 0 0 0
139           3   15  0.21000   50.0104988297   18.5156772991   46.3618466958 0 0 0
140           3   13 -0.11500   48.7133970549   18.3122016276   46.8667017610 0 0 0
141           3   13 -0.11500   48.5074765341   18.1432773477   48.2395059447 0 0 0
142           3   12  0.22500   43.2074112757   14.7809679299   53.2527759989 0 0 0
143           3   13 -0.11500   42.6446097293   15.4332849046   51.9590596529 0 0 0
144           3   13 -0.11500   41.2593910443   15.6900846008   51.8733793711 0 0 0
145           3   13 -0.11500   40.6939063778   16.3166558201   50.7610023671 0 0 0
146           3   15  0.21000   41.4816390637   16.7101516636   49.6749249128 0 0 0
147           3   13 -0.11500   42.8707869444   16.4640559110   49.7338659535 0 0 0
148           3   13 -0.11500   43.4478244089   15.8283439738   50.8632423733 0 0 0
149           3   12  0.22500   46.2703424671   10.3637977774   52.3133594990 0 0 0
150           3   13 -0.11500   45.8443182944    9.7858502920   50.9891914174 0 0 0
151           3   13 -0.11500   45.2526493745    8.5147501514   50.9048746230 0 0 0
152           3   13 -0.11500   44.9020332010    7.9863459540   49.6505141075 0 0 0
153           3   15  0.21000   45.1598045135    8.7105675778   48.4570569486 0 0 0
154           3   13 -0.11500   45.7347480475    9.9883149170   48.5756093416 0 0 0
155           3   13 -0.11500   46.0729184560   10.5159802760   49.8244420141 0 0 0
156           3   12  0.22500   42.1404655471   22.8290905037   47.1615564289 0 0 0
157           3   13 -0.11500   41.7707245469   21.3916769841   47.5231307181 0 0 0
158           3   13 -0.11500   42.0333661058   20.3380252342   46.6250776008 0 0 0
159           3   13 -0.11500   41.7569232225   19.0128951843   46.9743277733 0 0 0
160           3   15  0.21000   41.2139468030   18.7064070396   48.2289223792 0 0 0
161           3   13 -0.11500   40.9386479249   19.7547859957   49.1239771776 0 0 0
162           3   13 -0.11500   41.2130148874   21.0851326545   48.7716484431 0 0 0
163           3   12  0.22500   49.3029502346   24.1308921184   43.1266331760 0 0 0
164           3   13 -0.11500   49.5886776768   22.7146154682   43.5939588427 0 0 0
165           3   13 -0.11500   48.5265168057   21.8685024222   43.9383147594 0 0 0
166           3   13 -0.11500   48.7582484175   20.5630333369   44.3676781573 0 0 0
167           3   15  0.21000   50.0648011114   20.0735967140   44.4954977577 0 0 0
168           3   13 -0.11500   51.1391522523   20.9113689527   44.1573730733 0 0 0
169           3   13 -0.11500   50.9038170077   22.2211246461   43.7009978479 0 0 0
170           3   12  0.22500   43.4672914466   22.2459548912   39.3967701544 0 0 0
171           3   13 -0.11500   43.1619394869   20.7901504078   39.0282616921 0 0 0
172           3   13 -0.11500   42.7682465092   20.4578817727   37.7182214662 0 0 0
173           3   13 -0.11500   42.3606650988   19.1556935230   37.3947262482 0 0 0
174           3   15  0.21000   42.3658446086   18.1488063943   38.3687886090 0 0 0
175           3   13 -0.11500   42.7880300852   18.4655313479   39.6719316277 0 0 0
176           3   13 -0.11500   43.1762593160   19.7729952648   40.0024738649 0 0 0
177           3   16  0.50000   38.3240070054    8.8257953117   44.4489104945 0 0 0
178           3   17 -0.12000   38.9822296031    7.4734900619   44.5366574223 0 0 0
179           3   18  0.01000   40.3023066378    7.6564979361   43.7503503954 0 0 0
180           3   19 -0.17000   41.2279417567    6.4296964710   43.7142008200 0 0 0
181           3   20 -0.17000   43.3090560374    5.4052754328   43.0479051745 0 0 0
182           3   20 -0.17000   43.2637211885    7.7885371811   43.3131770927 0 0 0
183           3   20 -0.17000   42.1385311868    6.7573167379   41.4442303685 0 0 0
184           3   16  0.50000   48.4499521983    9.3768575863   52.2249486451 0 0 0
185           3   17 -0.12000   49.3720378211    8.7869113664   53.2813849006 0 0 0
186           3   18  0.01000   49.7146669571    7.3282174922   52.9033816512 0 0 0
187           3   19 -0.17000   50.2750212587    6.4845719969   54.0622929225 0 0 0
188           3   20 -0.17000   51.0980328859    4.3807282484   54.9041024874 0 0 0
189           3   20 -0.17000   51.3385765046    4.8430400394   52.5570165121 0 0 0
190           3   20 -0.17000   49.1612552303    4.3489195301   53.4900213304 0 0 0
191           3   16  0.50000   50.4641591423   16.1169117213   51.2936347107 0 0 0
192           3   17 -0.12000   51.0762861746   16.0653053675   52.6624759288 0 0 0
193           3   18  0.01000   52.3161469492   15.1606231720   52.7358134005 0 0 0
194           3   19 -0.17000   52.8744734213   15.1684032092   54.1749735798 0 0 0
195           3   20 -0.17000   53.8614161764   12.9153586477   54.2265991771 0 0 0
196           3   20 -0.17000   54.5452709239   14.5981378413   55.8029106533 0 0 0
197           3   20 -0.17000   55.2099007424   14.7902868393   53.5004224412 0 0 0
198           3   16  0.50000   43.1405543125   16.9036397636   54.4257062751 0 0 0
199           3   17 -0.12000   43.7340500120   18.2378269856   54.7975951180 0 0 0
200           3   18  0.01000   43.3771088850   19.1118413713   53.5757171022 0 0 0
201           3   19 -0.17000   43.9143311460   20.5390758893   53.6056315296 0 0 0
202           3   20 -0.17000   44.0731064355   22.7109692742   52.5828531900 0 0 0
203           3   20 -0.17000   42.0294957947   21.4758598484   52.3234109898 0 0 0
204           3   20 -0.17000   44.0257730714   20.7941159026   51.1434753020 0 0 0
205           3   16  0.50000   52.0318116190   13.5738120269   41.9390467637 0 0 0
206           3   17 -0.12000   52.2067097791   12.9822330467   43.3143281690 0 0 0
207           3   18  0.01000   51.6706865368   13.8461420282   44.4360912258 0 0 0
208           3   19 -0.17000   51.9993637042   13.1651868425   45.7826339673 0 0 0
209           3   20 -0.17000   52.2522033383   15.2712182064   47.0090074886 0 0 0
210           3   20 -0.17000   52.0880476261   13.1679998350   48.1741964794 0 0 0
211           3   20 -0.17000   50.1408144124   14.0866653435   47.0875270288 0 0 0
212           3   16  0.50000   41.0847104939   22.7049745045   39.5687904977 0 0 0
213           3   17 -0.12000   39.8670626591   22.5317659493   40.4377608923 0 0 0
214           3   18  0.01000   40.0412698703   21.1264070474   41.0481601095 0 0 0
215           3   19 -0.17000   38.9381038562   20.7142888802   42.0337585883 0 0 0
216           3   20 -0.17000   40.3781737740   19.6865063396   43.7426698444 0 0 0
217           3   20 -0.17000   39.5579609697   18.3222444990   41.9320441001 0 0 0
218           3   20 -0.17000   38.0503583599   19.1189204865   43.6158207307 0 0 0
219           3   16  0.50000   48.2465910058   23.5995170623   41.0259583488 0 0 0
220           3   17 -0.12000   47.3570888546   22.4115496875   40.6739676678 0 0 0
221           3   18  0.01000   48.0916926424   21.4167250258   39.7769285564 0 0 0
222           3   19 -0.17000   49.2910546885   20.7663847444   40.5028026506 0 0 0
223           3   20 -0.17000   51.5391985284   19.9303317521   40.5004216123 0 0 0
224           3   20 -0.17000   51.0707263039   21.9719878213   39.3372267575 0 0 0
225           3   20 -0.17000   50.2824656103   19.8472409794   38.4496024354 0 0 0
226           3   16  0.50000   34.3930372682   14.4033713461   47.8795430172 0 0 0
227           3   17 -0.12000   35.1338284265   14.7267357462   49.1694445346 0 0 0
228           3   18  0.01000   34.4374276040   13.9093461507   50.2932390636 0 0 0
229           3   19 -0.17000   35.2415923731   13.5788152729   51.5533622174 0 0 0
230           3   20 -0.17000   34.1102476651   11.3760750698   51.8943486534 0 0 0
231           3   20 -0.17000   33.2966025861   13.3379542236   53.0463212535 0 0 0
232           3   20 -0.17000   35.4178476515   12.3729426612   53.6363289290 0 0 0
233           3   16  0.50000   36.5507392651   13.6299132531   38.6749056169 0 0 0
234           3   17 -0.12000   36.0453390937   12.4041711611   37.9378581350 0 0 0
235           3   18  0.01000   36.9849023049   11.1796229893   38.0140470254 0 0 0
236           3   19 -0.17000   38.4311754316   11.5201912037   37.5772400494 0 0 0
237           3   20 -0.17000   40.6721307649   10.8511633772   37.0256505631 0 0 0
238           3   20 -0.17000   38.8562900917    9.4670403479   36.3058706739 0 0 0
239           3   20 -0.17000   39.4818852462    9.5538242295   38.6485331038 0 0 0
240           3   16  0.50000   44.5070835281   22.1014562795   47.0080124037 0 0 0
241           3   17 -0.12000   45.8133620636   21.8699329804   46.3065493971 0 0 0
242           3   18  0.01000   47.0402675832   21.7000018719   47.2399647732 0 0 0
243           3   19 -0.17000   47.8753921361   22.9785345567   47.4247759058 0 0 0
244           3   20 -0.17000   48.6105577636   22.8014204733   49.7459633393 0 0 0
245           3   20 -0.17000   49.9006691158   24.0616953014   48.1472272583 0 0 0
246           3   20 -0.17000   49.8859746059   21.6709358952   48.0334883768 0 0 0
247           3   16  0.50000   46.2828017684   12.9564646380   35.2697087951 0 0 0
248           3   17 -0.12000   47.4310317939   13.6087972963   34.5152428175 0 0 0
249           3   18  0.01000   47.2127021259   15.1330584846   34.7938500430 0 0 0
250           3   19 -0.17000   48.0876730226   16.1485355328   34.0356961704 0 0 0
251           3   20 -0.17000   48.6740975520   18.4465250135   33.5462928417 0 0 0
252           3   20 -0.17000   48.1321508690   17.8703646178   35.8127519725 0 0 0
253           3   20 -0.17000   46.3984864910   17.9765687979   34.1356623814 0 0 0
254           3   21 -0.60000   37.7544327302    9.0739265665   43.4003023573 0 0 0
255           3   21 -0.60000   48.2013496247    8.6916544463   51.2412564081 0 0 0
256           3   21 -0.60000   50.9679641245   15.5109997051   50.3627893054 0 0 0
257           3   21 -0.60000   41.9276501693   16.9004628782   54.2569003313 0 0 0
258           3   21 -0.60000   53.0641300295   13.7671497848   41.3080885950 0 0 0
259           3   21 -0.60000   40.9495125485   22.4226715259   38.3877182967 0 0 0
260           3   21 -0.60000   48.7696420800   24.2232963521   40.1122850093 0 0 0
261           3   21 -0.60000   33.3287335655   13.7956533946   47.9864706560 0 0 0
262           3   21 -0.60000   36.9218869197   14.5574403643   37.9703796228 0 0 0
263           3   21 -0.60000   44.3069513573   21.3348044505   47.9377113267 0 0 0
264           3   21 -0.60000   45.1805439612   13.2760667135   34.8336087611 0 0 0
265           3   11 -0.36000   47.7266576476   10.5251798021   52.4461071442 0 0 0
266           3   11 -0.36000   49.2704269877   16.7401183485   51.1280115148 0 0 0
267           3   11 -0.36000   43.8734836564   15.7804349119   54.1100316992 0 0 0
268           3   11 -0.36000   50.8591365020   13.3912331148   41.2575396025 0 0 0
269           3   22 -0.63000   50.2910620793   18.7498639134   44.9814076741 0 0 0
270           3   11 -0.36000   48.1280470675   24.1903516704   42.2490101877 0 0 0
271           3   11 -0.36000   46.3559900584   12.1973886068   36.4433944657 0 0 0
272           3   22 -0.63000   44.7398263950    8.1895040141   47.1784263755 0 0 0
273           3   11 -0.36000   38.6127206017    9.8386585232   45.3377555733 0 0 0
274           3   11 -0.36000   34.8970461373   14.5969604282   46.6177837980 0 0 0
275           3   11 -0.36000   36.6019966392   13.7349894676   40.0527356756 0 0 0
276           3   22 -0.63000   40.8685309503   17.3525891167   48.5439127289 0 0 0
277           3   11 -0.36000   43.5071562143   22.9776440448   46.6099365730 0 0 0
278           3   22 -0.63000   41.8895841290   16.8346080972   38.0615089459 0 0 0
279           3   11 -0.36000   42.3395413249   22.8075657141   40.1418660855 0 0 0
280           3   23  0.12000   42.4671975495    6.6126731660   42.8839173689 0 0 0
281           3   23  0.12000   50.4595564814    5.0316006802   53.7362758914 0 0 0
282           3   23  0.12000   54.1136673178   14.3650071471   54.4025241329 0 0 0
283           3   23  0.12000   43.5062154735   21.3542800966   52.4163806317 0 0 0
284           3   23  0.12000   51.6115869094   13.9337394931   46.9969127577 0 0 0
285           3   23  0.12000   39.2451539666   19.4688846502   42.8123043697 0 0 0
286           3   23  0.12000   50.5261423090   20.6314948088   39.6807915345 0 0 0
287           3   23  0.12000   34.5084276324   12.6744355596   52.5090670867 0 0 0
288           3   23  0.12000   39.3358137391   10.3421983237   37.4014808185 0 0 0
289           3   23  0.12000   49.0560327963   22.8586199349   48.3344654764 0 0 0
290           3   23  0.12000   47.8102431258   17.5879049804   34.3912355434 0 0 0
291           3   24  0.06000   49.5802601581    5.9608445828   43.6672409453 0 0 0
292           3   24  0.06000   48.3895610359    5.9291038790   42.3686535866 0 0 0
293           3   24  0.06000   49.5290675369    7.2632963239   39.9192745930 0 0 0
294           3   24  0.06000   48.1342986801    7.5071489410   40.8572168820 0 0 0
295           3   24  0.06000   50.2922113587    9.5031585167   42.3860947860 0 0 0
296           3   24  0.06000   50.1401917762   11.1696444414   42.3594544121 0 0 0
297           3   24  0.06000   51.6242032803   10.3987817038   41.5746789694 0 0 0
298           3   24  0.06000   51.2558886054   13.3263774739   39.2124443690 0 0 0
299           3   24  0.06000   51.8992689374   11.9929014615   40.0411333775 0 0 0
300           3   24  0.06000   48.4874066475   13.3974486466   37.0201545758 0 0 0
301           3   24  0.06000   50.2106469006   13.2956841253   37.3546691682 0 0 0
302           3   24  0.06000   49.0228140952   14.0594291240   38.5048834105 0 0 0
303           3   24  0.06000   47.0662422089   10.2427577969   36.2757929154 0 0 0
304           3   24  0.06000   48.2740140565   11.3790600670   35.9897521574 0 0 0
305           3   24  0.06000   46.2529014924    9.0748299235   37.7569415783 0 0 0
306           3   24  0.06000   46.2870750478    8.5434850782   39.3908992960 0 0 0
307           3   24  0.06000   47.3343090916    7.7026031158   38.1677544220 0 0 0
308           3   24  0.06000   33.7072171736   12.9154395009   45.9672052798 0 0 0
309           3   24  0.06000   33.5064928939   14.4060068177   45.0851033369 0 0 0
310           3   24  0.06000   37.1942463613   11.3642291428   46.9189956291 0 0 0
311           3   24  0.06000   35.4555840728   11.5313454433   46.9248768443 0 0 0
312           3   24  0.06000   36.5355375413   12.9380829049   47.2271287593 0 0 0
313           3   24  0.06000   39.4483922117   11.2267137663   44.0846228579 0 0 0
314           3   24  0.06000   39.0417703871   11.9238763665   45.6073920461 0 0 0
315           3   24  0.06000   38.1830272493   11.8911541283   40.8226853175 0 0 0
316           3   24  0.06000   38.5049263381   10.5443459946   41.8686254821 0 0 0
317           3   24  0.06000   39.3033908171   12.1218115353   42.1370858032 0 0 0
318           3   24  0.06000   36.0186715989   11.7182920649   40.5219855912 0 0 0
319           3   24  0.06000   34.7833284682   12.8176656129   40.5607947563 0 0 0
320           3   24  0.06000   33.8644634766   14.2713203283   41.6212376335 0 0 0
321           3   24  0.06000   33.9813148048   15.1320399928   43.1152675617 0 0 0
322           3   24  0.06000   32.9982118611   13.6016258426   43.0188822359 0 0 0
323           3   24  0.06000   47.3522044092   25.9390181822   41.3264032289 0 0 0
324           3   24  0.06000   47.7266085277   26.2174748078   42.9285687833 0 0 0
325           3   24  0.06000   47.3817648575   25.7087945831   44.8766479070 0 0 0
326           3   24  0.06000   46.5806876517   24.5021961970   45.8360636902 0 0 0
327           3   24  0.06000   45.9019781758   26.1393585395   45.6760483424 0 0 0
328           3   24  0.06000   42.8524596232   24.8474575386   45.8450288189 0 0 0
329           3   24  0.06000   44.4318222249   24.8074481243   46.5078885470 0 0 0
330           3   24  0.06000   41.4524827615   22.8439190285   42.8337411831 0 0 0
331           3   24  0.06000   41.4166883112   23.8450797978   44.2896061739 0 0 0
332           3   24  0.06000   42.2866249110   22.2427342393   44.2334989207 0 0 0
333           3   24  0.06000   41.6085284850   24.4161556432   41.3881977700 0 0 0
334           3   24  0.06000   42.6097005502   24.8899321122   40.1847633708 0 0 0
335           3   24  0.06000   44.5160922276   24.9596094073   39.4266045172 0 0 0
336           3   24  0.06000   46.1958143382   24.8179190886   39.8199332404 0 0 0
337           3   24  0.06000   45.3432257314   26.3171850941   40.2165440222 0 0 0
338           3   24  0.06000   48.4954073658   15.2859301878   49.8150441203 0 0 0
339           3   24  0.06000   47.3204061943   16.4650171464   50.2607213477 0 0 0
340           3   24  0.06000   49.1739949569   11.9669991436   51.1210891446 0 0 0
341           3   24  0.06000   49.8926936016   13.5339151602   50.9073616192 0 0 0
342           3   24  0.06000   48.4171558932   13.0684449449   49.9757329649 0 0 0
343           3   24  0.06000   49.2895134043   11.6171236762   53.3812448130 0 0 0
344           3   24  0.06000   48.0411449075   11.0955677487   54.4368548313 0 0 0
345           3   24  0.06000   46.3399659745   11.6613866066   55.3123182846 0 0 0